/*--------------------------------*- C++ -*----------------------------------*\
  =========                 |
  \\      /  F ield         | OpenFOAM: The Open Source CFD Toolbox
   \\    /   O peration     | Website:  https://openfoam.org
    \\  /    A nd           | Version:  10
     \\/     M anipulation  |
\*---------------------------------------------------------------------------*/
FoamFile
{
    format      ascii;
    class       volScalarField;
    location    "0";
    object      p;
}
// * * * * * * * * * * * * * * * * * * * * * * * * * * * * * * * * * * * * * //

dimensions      [0 2 -2 0 0 0 0];

internalField   nonuniform List<scalar> 
84253
(
-20.7027
-20.7062
-20.7129
-20.7227
-20.7352
-20.7502
-20.7676
-20.787
-20.8084
-20.8314
-20.8561
-20.8821
-20.9094
-20.9378
-20.9673
-20.9975
-21.0286
-21.0603
-21.0925
-21.1252
-21.1583
-21.1917
-21.2253
-21.259
-21.2929
-21.3267
-21.3606
-21.3943
-21.4279
-21.4614
-21.4947
-21.5277
-21.5604
-21.5928
-21.6249
-21.6566
-21.6879
-21.7189
-21.7494
-21.7794
-21.809
-21.8382
-21.8668
-21.895
-21.9226
-21.9497
-21.9764
-22.0025
-22.0281
-22.0531
-22.0776
-22.1016
-22.1251
-22.1481
-22.1705
-22.1924
-22.2137
-22.2346
-22.2549
-22.2748
-22.2941
-22.3129
-22.3312
-22.3491
-22.3664
-22.3833
-22.3997
-22.4157
-22.4312
-22.4462
-22.4608
-22.475
-22.4887
-22.5021
-22.515
-22.5275
-22.5396
-22.5513
-22.5627
-22.5736
-22.5842
-22.5945
-22.6044
-22.614
-20.6996
-20.7031
-20.7099
-20.7197
-20.7322
-20.7472
-20.7646
-20.784
-20.8053
-20.8284
-20.8531
-20.8791
-20.9064
-20.9348
-20.9642
-20.9945
-21.0256
-21.0573
-21.0895
-21.1222
-21.1553
-21.1887
-21.2222
-21.256
-21.2898
-21.3237
-21.3575
-21.3913
-21.4249
-21.4583
-21.4916
-21.5246
-21.5573
-21.5897
-21.6218
-21.6535
-21.6849
-21.7158
-21.7463
-21.7763
-21.8059
-21.8351
-21.8637
-21.8919
-21.9195
-21.9466
-21.9733
-21.9994
-22.025
-22.05
-22.0745
-22.0985
-22.122
-22.145
-22.1674
-22.1893
-22.2107
-22.2315
-22.2518
-22.2717
-22.291
-22.3098
-22.3282
-22.346
-22.3634
-22.3802
-22.3966
-22.4126
-22.4281
-22.4431
-22.4577
-22.4719
-22.4857
-22.499
-22.5119
-22.5244
-22.5365
-22.5482
-22.5596
-22.5706
-22.5812
-22.5914
-22.6013
-22.6109
-20.6939
-20.6974
-20.7042
-20.714
-20.7265
-20.7415
-20.7589
-20.7783
-20.7996
-20.8227
-20.8473
-20.8734
-20.9007
-20.9291
-20.9585
-20.9888
-21.0199
-21.0515
-21.0838
-21.1165
-21.1496
-21.1829
-21.2165
-21.2502
-21.2841
-21.3179
-21.3517
-21.3855
-21.4191
-21.4526
-21.4858
-21.5188
-21.5515
-21.5839
-21.616
-21.6477
-21.679
-21.71
-21.7405
-21.7705
-21.8001
-21.8292
-21.8579
-21.886
-21.9137
-21.9408
-21.9674
-21.9935
-22.0191
-22.0442
-22.0687
-22.0927
-22.1162
-22.1391
-22.1615
-22.1834
-22.2048
-22.2257
-22.246
-22.2659
-22.2852
-22.304
-22.3224
-22.3402
-22.3576
-22.3745
-22.3909
-22.4068
-22.4223
-22.4374
-22.452
-22.4662
-22.4799
-22.4932
-22.5062
-22.5187
-22.5308
-22.5425
-22.5539
-22.5649
-22.5755
-22.5857
-22.5956
-22.6052
-20.6858
-20.6893
-20.6961
-20.7059
-20.7184
-20.7334
-20.7507
-20.7702
-20.7915
-20.8146
-20.8392
-20.8653
-20.8926
-20.921
-20.9504
-20.9807
-21.0117
-21.0434
-21.0757
-21.1083
-21.1414
-21.1748
-21.2084
-21.2421
-21.2759
-21.3097
-21.3436
-21.3773
-21.4109
-21.4444
-21.4776
-21.5106
-21.5433
-21.5757
-21.6078
-21.6395
-21.6708
-21.7017
-21.7322
-21.7622
-21.7918
-21.8209
-21.8496
-21.8777
-21.9054
-21.9325
-21.9591
-21.9852
-22.0108
-22.0359
-22.0604
-22.0844
-22.1079
-22.1308
-22.1533
-22.1752
-22.1966
-22.2174
-22.2378
-22.2576
-22.277
-22.2958
-22.3141
-22.332
-22.3494
-22.3663
-22.3827
-22.3986
-22.4141
-22.4292
-22.4438
-22.458
-22.4718
-22.4851
-22.498
-22.5105
-22.5227
-22.5344
-22.5458
-22.5568
-22.5674
-22.5776
-22.5875
-22.5971
-20.6756
-20.6791
-20.6859
-20.6956
-20.7081
-20.7232
-20.7405
-20.7599
-20.7813
-20.8044
-20.829
-20.8551
-20.8824
-20.9108
-20.9402
-20.9705
-21.0015
-21.0332
-21.0654
-21.0981
-21.1312
-21.1645
-21.1981
-21.2318
-21.2656
-21.2994
-21.3332
-21.367
-21.4006
-21.434
-21.4672
-21.5002
-21.5329
-21.5653
-21.5973
-21.629
-21.6603
-21.6913
-21.7217
-21.7518
-21.7814
-21.8105
-21.8391
-21.8672
-21.8949
-21.922
-21.9486
-21.9748
-22.0003
-22.0254
-22.0499
-22.0739
-22.0974
-22.1204
-22.1428
-22.1647
-22.1861
-22.207
-22.2273
-22.2472
-22.2665
-22.2854
-22.3037
-22.3216
-22.339
-22.3559
-22.3723
-22.3883
-22.4038
-22.4189
-22.4335
-22.4477
-22.4615
-22.4748
-22.4877
-22.5003
-22.5124
-22.5242
-22.5355
-22.5465
-22.5571
-22.5674
-22.5773
-22.5869
-20.6635
-20.667
-20.6738
-20.6835
-20.696
-20.7111
-20.7284
-20.7479
-20.7692
-20.7923
-20.8169
-20.843
-20.8703
-20.8987
-20.9281
-20.9584
-20.9894
-21.0211
-21.0533
-21.086
-21.119
-21.1524
-21.1859
-21.2196
-21.2534
-21.2872
-21.321
-21.3548
-21.3883
-21.4218
-21.455
-21.4879
-21.5206
-21.553
-21.585
-21.6167
-21.648
-21.6789
-21.7094
-21.7394
-21.769
-21.7981
-21.8267
-21.8548
-21.8825
-21.9096
-21.9362
-21.9623
-21.9879
-22.013
-22.0375
-22.0615
-22.085
-22.108
-22.1304
-22.1523
-22.1737
-22.1946
-22.215
-22.2348
-22.2542
-22.273
-22.2914
-22.3093
-22.3267
-22.3436
-22.36
-22.376
-22.3915
-22.4066
-22.4213
-22.4355
-22.4492
-22.4626
-22.4756
-22.4881
-22.5002
-22.512
-22.5234
-22.5344
-22.545
-22.5553
-22.5652
-22.5748
-20.6497
-20.6532
-20.66
-20.6698
-20.6823
-20.6973
-20.7147
-20.7341
-20.7555
-20.7785
-20.8032
-20.8292
-20.8565
-20.885
-20.9144
-20.9446
-20.9756
-21.0073
-21.0395
-21.0722
-21.1052
-21.1386
-21.1721
-21.2058
-21.2396
-21.2734
-21.3072
-21.3409
-21.3745
-21.4079
-21.441
-21.474
-21.5067
-21.539
-21.5711
-21.6027
-21.634
-21.6649
-21.6953
-21.7253
-21.7549
-21.784
-21.8126
-21.8408
-21.8684
-21.8955
-21.9221
-21.9482
-21.9738
-21.9989
-22.0234
-22.0474
-22.0709
-22.0939
-22.1163
-22.1383
-22.1597
-22.1805
-22.2009
-22.2208
-22.2402
-22.259
-22.2774
-22.2953
-22.3127
-22.3296
-22.3461
-22.3621
-22.3776
-22.3927
-22.4074
-22.4216
-22.4354
-22.4487
-22.4617
-22.4743
-22.4864
-22.4982
-22.5096
-22.5206
-22.5313
-22.5416
-22.5515
-22.5611
-20.6346
-20.6381
-20.6448
-20.6546
-20.6671
-20.6822
-20.6995
-20.719
-20.7403
-20.7634
-20.788
-20.8141
-20.8414
-20.8698
-20.8992
-20.9295
-20.9605
-20.9921
-21.0244
-21.057
-21.09
-21.1234
-21.1569
-21.1906
-21.2244
-21.2581
-21.2919
-21.3256
-21.3591
-21.3925
-21.4257
-21.4586
-21.4913
-21.5236
-21.5556
-21.5873
-21.6185
-21.6494
-21.6798
-21.7098
-21.7394
-21.7685
-21.7971
-21.8252
-21.8528
-21.8799
-21.9065
-21.9326
-21.9582
-21.9833
-22.0078
-22.0318
-22.0553
-22.0783
-22.1007
-22.1227
-22.1441
-22.165
-22.1854
-22.2052
-22.2246
-22.2435
-22.2619
-22.2798
-22.2972
-22.3141
-22.3306
-22.3466
-22.3622
-22.3773
-22.392
-22.4062
-22.42
-22.4334
-22.4464
-22.4589
-22.4711
-22.4829
-22.4943
-22.5054
-22.516
-22.5263
-22.5363
-22.5459
-20.6182
-20.6217
-20.6284
-20.6382
-20.6507
-20.6658
-20.6831
-20.7026
-20.7239
-20.747
-20.7717
-20.7977
-20.825
-20.8534
-20.8828
-20.9131
-20.9441
-20.9757
-21.0079
-21.0406
-21.0736
-21.1069
-21.1405
-21.1741
-21.2079
-21.2416
-21.2754
-21.309
-21.3426
-21.3759
-21.4091
-21.442
-21.4746
-21.5069
-21.5389
-21.5706
-21.6018
-21.6326
-21.6631
-21.693
-21.7226
-21.7516
-21.7802
-21.8083
-21.8359
-21.8631
-21.8897
-21.9158
-21.9413
-21.9664
-21.9909
-22.0149
-22.0384
-22.0614
-22.0839
-22.1058
-22.1272
-22.1481
-22.1685
-22.1884
-22.2078
-22.2267
-22.2451
-22.263
-22.2804
-22.2974
-22.3139
-22.3299
-22.3455
-22.3606
-22.3753
-22.3895
-22.4034
-22.4168
-22.4298
-22.4423
-22.4545
-22.4663
-22.4778
-22.4888
-22.4995
-22.5098
-22.5198
-22.5294
-20.6007
-20.6042
-20.611
-20.6208
-20.6333
-20.6483
-20.6657
-20.6851
-20.7065
-20.7296
-20.7542
-20.7803
-20.8076
-20.836
-20.8654
-20.8956
-20.9267
-20.9583
-20.9905
-21.0231
-21.0562
-21.0895
-21.123
-21.1566
-21.1903
-21.2241
-21.2578
-21.2915
-21.325
-21.3583
-21.3914
-21.4243
-21.4569
-21.4892
-21.5212
-21.5528
-21.584
-21.6148
-21.6452
-21.6752
-21.7047
-21.7337
-21.7623
-21.7904
-21.818
-21.8451
-21.8717
-21.8978
-21.9233
-21.9484
-21.9729
-21.9969
-22.0204
-22.0434
-22.0658
-22.0878
-22.1092
-22.1301
-22.1505
-22.1704
-22.1898
-22.2087
-22.2271
-22.245
-22.2625
-22.2795
-22.296
-22.312
-22.3276
-22.3428
-22.3575
-22.3717
-22.3856
-22.399
-22.412
-22.4246
-22.4368
-22.4486
-22.4601
-22.4712
-22.4819
-22.4922
-22.5022
-22.5119
-20.5823
-20.5858
-20.5926
-20.6024
-20.6149
-20.63
-20.6473
-20.6668
-20.6882
-20.7112
-20.7359
-20.7619
-20.7893
-20.8177
-20.8471
-20.8773
-20.9083
-20.94
-20.9722
-21.0048
-21.0378
-21.0711
-21.1046
-21.1382
-21.1719
-21.2057
-21.2394
-21.273
-21.3065
-21.3398
-21.3729
-21.4057
-21.4383
-21.4706
-21.5025
-21.5341
-21.5653
-21.5961
-21.6264
-21.6564
-21.6858
-21.7149
-21.7434
-21.7715
-21.7991
-21.8262
-21.8527
-21.8788
-21.9044
-21.9294
-21.9539
-21.9779
-22.0014
-22.0244
-22.0469
-22.0688
-22.0902
-22.1111
-22.1315
-22.1515
-22.1709
-22.1898
-22.2082
-22.2261
-22.2436
-22.2606
-22.2771
-22.2932
-22.3088
-22.3239
-22.3387
-22.3529
-22.3668
-22.3803
-22.3933
-22.4059
-22.4181
-22.43
-22.4415
-22.4525
-22.4633
-22.4736
-22.4836
-22.4933
-20.5632
-20.5667
-20.5735
-20.5833
-20.5958
-20.6109
-20.6283
-20.6477
-20.6691
-20.6922
-20.7168
-20.7429
-20.7702
-20.7986
-20.828
-20.8583
-20.8893
-20.9209
-20.9531
-20.9857
-21.0187
-21.052
-21.0855
-21.1191
-21.1528
-21.1865
-21.2202
-21.2538
-21.2872
-21.3205
-21.3536
-21.3864
-21.419
-21.4512
-21.4831
-21.5146
-21.5458
-21.5766
-21.6069
-21.6368
-21.6663
-21.6953
-21.7238
-21.7518
-21.7794
-21.8064
-21.833
-21.859
-21.8846
-21.9096
-21.9341
-21.9581
-21.9816
-22.0046
-22.027
-22.049
-22.0704
-22.0913
-22.1117
-22.1317
-22.1511
-22.17
-22.1884
-22.2064
-22.2239
-22.2409
-22.2574
-22.2735
-22.2891
-22.3043
-22.319
-22.3333
-22.3472
-22.3607
-22.3737
-22.3864
-22.3986
-22.4105
-22.422
-22.4331
-22.4438
-22.4542
-22.4642
-22.4739
-20.5435
-20.547
-20.5538
-20.5636
-20.5761
-20.5912
-20.6086
-20.628
-20.6494
-20.6725
-20.6972
-20.7232
-20.7505
-20.779
-20.8084
-20.8386
-20.8696
-20.9013
-20.9334
-20.9661
-20.999
-21.0323
-21.0658
-21.0994
-21.1331
-21.1667
-21.2004
-21.234
-21.2674
-21.3007
-21.3337
-21.3665
-21.399
-21.4312
-21.4631
-21.4946
-21.5257
-21.5564
-21.5867
-21.6166
-21.646
-21.675
-21.7035
-21.7315
-21.759
-21.7861
-21.8126
-21.8386
-21.8642
-21.8892
-21.9137
-21.9377
-21.9611
-21.9841
-22.0065
-22.0285
-22.0499
-22.0708
-22.0912
-22.1112
-22.1306
-22.1495
-22.168
-22.1859
-22.2034
-22.2204
-22.237
-22.2531
-22.2687
-22.2839
-22.2987
-22.313
-22.3269
-22.3404
-22.3535
-22.3661
-22.3784
-22.3903
-22.4018
-22.4129
-22.4237
-22.4341
-22.4441
-22.4539
-20.5233
-20.5268
-20.5336
-20.5434
-20.556
-20.571
-20.5884
-20.6079
-20.6292
-20.6524
-20.677
-20.7031
-20.7304
-20.7588
-20.7882
-20.8185
-20.8495
-20.8811
-20.9133
-20.9459
-20.9789
-21.0121
-21.0456
-21.0792
-21.1128
-21.1465
-21.1802
-21.2137
-21.2471
-21.2803
-21.3133
-21.3461
-21.3786
-21.4107
-21.4426
-21.474
-21.5051
-21.5358
-21.5661
-21.5959
-21.6253
-21.6542
-21.6827
-21.7107
-21.7382
-21.7652
-21.7917
-21.8177
-21.8432
-21.8682
-21.8927
-21.9166
-21.9401
-21.963
-21.9855
-22.0074
-22.0288
-22.0497
-22.0702
-22.0901
-22.1095
-22.1285
-22.1469
-22.1649
-22.1824
-22.1994
-22.216
-22.2321
-22.2478
-22.263
-22.2777
-22.2921
-22.306
-22.3195
-22.3326
-22.3453
-22.3576
-22.3695
-22.381
-22.3922
-22.403
-22.4134
-22.4235
-22.4332
-20.5027
-20.5062
-20.513
-20.5228
-20.5354
-20.5505
-20.5678
-20.5873
-20.6087
-20.6318
-20.6565
-20.6826
-20.7099
-20.7383
-20.7677
-20.798
-20.829
-20.8606
-20.8928
-20.9254
-20.9584
-20.9916
-21.0251
-21.0586
-21.0923
-21.1259
-21.1596
-21.1931
-21.2264
-21.2596
-21.2926
-21.3253
-21.3578
-21.3899
-21.4217
-21.4531
-21.4842
-21.5148
-21.5451
-21.5748
-21.6042
-21.6331
-21.6615
-21.6894
-21.7169
-21.7439
-21.7703
-21.7963
-21.8218
-21.8467
-21.8712
-21.8951
-21.9186
-21.9415
-21.9639
-21.9859
-22.0073
-22.0282
-22.0486
-22.0685
-22.088
-22.1069
-22.1254
-22.1433
-22.1609
-22.1779
-22.1945
-22.2106
-22.2263
-22.2415
-22.2563
-22.2707
-22.2846
-22.2981
-22.3113
-22.324
-22.3363
-22.3482
-22.3598
-22.3709
-22.3817
-22.3922
-22.4023
-22.412
-20.4819
-20.4854
-20.4922
-20.502
-20.5145
-20.5296
-20.547
-20.5665
-20.5879
-20.611
-20.6357
-20.6618
-20.6891
-20.7176
-20.747
-20.7772
-20.8082
-20.8399
-20.8721
-20.9047
-20.9376
-20.9709
-21.0043
-21.0379
-21.0715
-21.1051
-21.1387
-21.1722
-21.2055
-21.2387
-21.2717
-21.3043
-21.3367
-21.3688
-21.4006
-21.432
-21.463
-21.4936
-21.5238
-21.5535
-21.5828
-21.6116
-21.64
-21.6679
-21.6953
-21.7223
-21.7487
-21.7746
-21.8001
-21.825
-21.8494
-21.8733
-21.8968
-21.9197
-21.9421
-21.964
-21.9854
-22.0063
-22.0267
-22.0466
-22.066
-22.085
-22.1034
-22.1214
-22.1389
-22.156
-22.1726
-22.1887
-22.2044
-22.2197
-22.2345
-22.2489
-22.2628
-22.2764
-22.2895
-22.3023
-22.3146
-22.3265
-22.3381
-22.3493
-22.3601
-22.3706
-22.3807
-22.3905
-20.4608
-20.4644
-20.4712
-20.481
-20.4935
-20.5086
-20.526
-20.5455
-20.5669
-20.59
-20.6147
-20.6408
-20.6682
-20.6966
-20.726
-20.7563
-20.7873
-20.819
-20.8511
-20.8837
-20.9167
-20.9499
-20.9833
-21.0169
-21.0505
-21.0841
-21.1177
-21.1512
-21.1845
-21.2176
-21.2505
-21.2832
-21.3156
-21.3476
-21.3793
-21.4106
-21.4416
-21.4722
-21.5023
-21.532
-21.5612
-21.59
-21.6183
-21.6462
-21.6736
-21.7004
-21.7268
-21.7527
-21.7781
-21.803
-21.8274
-21.8513
-21.8747
-21.8975
-21.9199
-21.9418
-21.9632
-21.9841
-22.0045
-22.0244
-22.0438
-22.0628
-22.0812
-22.0992
-22.1167
-22.1338
-22.1504
-22.1666
-22.1823
-22.1975
-22.2124
-22.2268
-22.2407
-22.2543
-22.2675
-22.2802
-22.2926
-22.3046
-22.3162
-22.3274
-22.3382
-22.3487
-22.3589
-22.3687
-20.4397
-20.4432
-20.45
-20.4598
-20.4724
-20.4875
-20.5049
-20.5244
-20.5458
-20.569
-20.5937
-20.6198
-20.6471
-20.6756
-20.705
-20.7353
-20.7663
-20.798
-20.8301
-20.8627
-20.8957
-20.9289
-20.9623
-20.9959
-21.0295
-21.0631
-21.0966
-21.1301
-21.1633
-21.1965
-21.2293
-21.262
-21.2943
-21.3263
-21.358
-21.3892
-21.4202
-21.4507
-21.4807
-21.5104
-21.5396
-21.5683
-21.5966
-21.6244
-21.6517
-21.6785
-21.7048
-21.7307
-21.756
-21.7809
-21.8052
-21.8291
-21.8524
-21.8753
-21.8976
-21.9195
-21.9408
-21.9617
-21.9821
-22.002
-22.0214
-22.0403
-22.0588
-22.0768
-22.0943
-22.1114
-22.128
-22.1442
-22.1599
-22.1752
-22.19
-22.2044
-22.2184
-22.232
-22.2452
-22.258
-22.2704
-22.2824
-22.294
-22.3052
-22.3161
-22.3266
-22.3368
-22.3466
-20.4185
-20.422
-20.4289
-20.4387
-20.4512
-20.4663
-20.4838
-20.5033
-20.5247
-20.5479
-20.5726
-20.5987
-20.6261
-20.6545
-20.684
-20.7143
-20.7453
-20.7769
-20.8091
-20.8417
-20.8747
-20.9079
-20.9413
-20.9748
-21.0084
-21.042
-21.0755
-21.109
-21.1422
-21.1753
-21.2082
-21.2407
-21.273
-21.305
-21.3366
-21.3679
-21.3987
-21.4292
-21.4592
-21.4888
-21.5179
-21.5466
-21.5748
-21.6025
-21.6298
-21.6566
-21.6828
-21.7086
-21.7339
-21.7587
-21.783
-21.8068
-21.8301
-21.8529
-21.8752
-21.897
-21.9184
-21.9392
-21.9596
-21.9794
-21.9988
-22.0178
-22.0362
-22.0542
-22.0717
-22.0888
-22.1054
-22.1216
-22.1373
-22.1526
-22.1675
-22.1819
-22.1959
-22.2095
-22.2228
-22.2356
-22.248
-22.26
-22.2716
-22.2829
-22.2938
-22.3044
-22.3146
-22.3244
-20.3974
-20.4009
-20.4077
-20.4176
-20.4301
-20.4452
-20.4627
-20.4822
-20.5036
-20.5268
-20.5515
-20.5777
-20.605
-20.6335
-20.663
-20.6933
-20.7243
-20.756
-20.7882
-20.8208
-20.8537
-20.8869
-20.9203
-20.9539
-20.9874
-21.021
-21.0545
-21.0879
-21.1212
-21.1542
-21.187
-21.2196
-21.2518
-21.2838
-21.3153
-21.3465
-21.3773
-21.4077
-21.4377
-21.4672
-21.4963
-21.5249
-21.5531
-21.5807
-21.6079
-21.6346
-21.6608
-21.6866
-21.7118
-21.7365
-21.7608
-21.7845
-21.8078
-21.8305
-21.8528
-21.8746
-21.8959
-21.9167
-21.937
-21.9568
-21.9762
-21.9951
-22.0136
-22.0315
-22.0491
-22.0661
-22.0827
-22.0989
-22.1147
-22.13
-22.1448
-22.1593
-22.1733
-22.187
-22.2002
-22.213
-22.2255
-22.2375
-22.2492
-22.2605
-22.2715
-22.282
-22.2923
-22.3022
-20.3764
-20.3799
-20.3867
-20.3965
-20.4091
-20.4242
-20.4417
-20.4612
-20.4827
-20.5058
-20.5306
-20.5567
-20.5841
-20.6126
-20.6421
-20.6724
-20.7034
-20.7351
-20.7673
-20.7999
-20.8329
-20.8661
-20.8995
-20.933
-20.9666
-21.0002
-21.0337
-21.067
-21.1003
-21.1333
-21.1661
-21.1986
-21.2308
-21.2627
-21.2942
-21.3254
-21.3561
-21.3865
-21.4164
-21.4458
-21.4748
-21.5034
-21.5315
-21.5591
-21.5862
-21.6128
-21.639
-21.6646
-21.6898
-21.7145
-21.7386
-21.7623
-21.7855
-21.8082
-21.8304
-21.8521
-21.8734
-21.8941
-21.9144
-21.9342
-21.9536
-21.9725
-21.9909
-22.0089
-22.0264
-22.0434
-22.06
-22.0762
-22.092
-22.1073
-22.1222
-22.1366
-22.1507
-22.1644
-22.1776
-22.1905
-22.2029
-22.215
-22.2267
-22.2381
-22.249
-22.2597
-22.2699
-22.2798
-20.3555
-20.359
-20.3658
-20.3757
-20.3883
-20.4034
-20.4208
-20.4404
-20.4618
-20.485
-20.5098
-20.536
-20.5634
-20.5919
-20.6214
-20.6517
-20.6827
-20.7144
-20.7466
-20.7793
-20.8122
-20.8454
-20.8789
-20.9124
-20.9459
-20.9795
-21.013
-21.0463
-21.0795
-21.1125
-21.1453
-21.1778
-21.21
-21.2418
-21.2733
-21.3044
-21.3351
-21.3654
-21.3952
-21.4246
-21.4536
-21.4821
-21.5101
-21.5376
-21.5646
-21.5912
-21.6173
-21.6429
-21.6679
-21.6925
-21.7166
-21.7402
-21.7634
-21.786
-21.8081
-21.8298
-21.851
-21.8717
-21.8919
-21.9117
-21.931
-21.9499
-21.9683
-21.9862
-22.0037
-22.0207
-22.0374
-22.0535
-22.0693
-22.0846
-22.0995
-22.114
-22.1281
-22.1417
-22.155
-22.1679
-22.1804
-22.1925
-22.2042
-22.2156
-22.2266
-22.2373
-22.2476
-22.2575
-20.3348
-20.3383
-20.3452
-20.355
-20.3676
-20.3827
-20.4002
-20.4198
-20.4412
-20.4644
-20.4892
-20.5154
-20.5428
-20.5713
-20.6008
-20.6312
-20.6623
-20.694
-20.7262
-20.7588
-20.7918
-20.825
-20.8584
-20.8919
-20.9255
-20.959
-20.9925
-21.0259
-21.0591
-21.092
-21.1248
-21.1572
-21.1894
-21.2212
-21.2526
-21.2837
-21.3143
-21.3445
-21.3743
-21.4037
-21.4326
-21.461
-21.4889
-21.5164
-21.5433
-21.5698
-21.5958
-21.6213
-21.6463
-21.6708
-21.6948
-21.7184
-21.7414
-21.764
-21.786
-21.8076
-21.8287
-21.8494
-21.8696
-21.8893
-21.9086
-21.9274
-21.9457
-21.9636
-21.9811
-21.9981
-22.0147
-22.0309
-22.0466
-22.062
-22.0769
-22.0914
-22.1055
-22.1191
-22.1324
-22.1454
-22.1579
-22.17
-22.1818
-22.1932
-22.2043
-22.2149
-22.2253
-22.2353
-20.3144
-20.3179
-20.3247
-20.3346
-20.3472
-20.3623
-20.3798
-20.3994
-20.4209
-20.4441
-20.4689
-20.4951
-20.5225
-20.551
-20.5806
-20.6109
-20.642
-20.6737
-20.706
-20.7386
-20.7716
-20.8048
-20.8382
-20.8718
-20.9053
-20.9389
-20.9723
-21.0057
-21.0388
-21.0718
-21.1045
-21.1369
-21.1691
-21.2008
-21.2322
-21.2632
-21.2938
-21.324
-21.3537
-21.383
-21.4118
-21.4402
-21.468
-21.4954
-21.5223
-21.5487
-21.5746
-21.6
-21.6249
-21.6494
-21.6733
-21.6967
-21.7197
-21.7422
-21.7641
-21.7857
-21.8067
-21.8273
-21.8474
-21.8671
-21.8863
-21.905
-21.9233
-21.9412
-21.9586
-21.9756
-21.9922
-22.0083
-22.0241
-22.0394
-22.0543
-22.0688
-22.0829
-22.0966
-22.1099
-22.1229
-22.1354
-22.1476
-22.1594
-22.1709
-22.1819
-22.1927
-22.2031
-22.2131
-20.2942
-20.2978
-20.3046
-20.3144
-20.327
-20.3422
-20.3597
-20.3793
-20.4008
-20.424
-20.4488
-20.475
-20.5025
-20.531
-20.5606
-20.591
-20.6221
-20.6538
-20.686
-20.7187
-20.7517
-20.785
-20.8184
-20.8519
-20.8855
-20.919
-20.9525
-20.9858
-21.019
-21.0519
-21.0846
-21.117
-21.1491
-21.1808
-21.2122
-21.2431
-21.2737
-21.3038
-21.3335
-21.3627
-21.3915
-21.4197
-21.4475
-21.4748
-21.5016
-21.5279
-21.5538
-21.5791
-21.6039
-21.6282
-21.6521
-21.6754
-21.6983
-21.7206
-21.7425
-21.764
-21.7849
-21.8054
-21.8254
-21.845
-21.8642
-21.8828
-21.9011
-21.9189
-21.9363
-21.9533
-21.9698
-21.9859
-22.0016
-22.0169
-22.0318
-22.0463
-22.0605
-22.0742
-22.0875
-22.1005
-22.1131
-22.1253
-22.1371
-22.1486
-22.1597
-22.1705
-22.1809
-22.191
-20.2744
-20.2779
-20.2847
-20.2946
-20.3072
-20.3224
-20.3399
-20.3595
-20.381
-20.4043
-20.4291
-20.4553
-20.4828
-20.5114
-20.5409
-20.5713
-20.6024
-20.6342
-20.6664
-20.6991
-20.7321
-20.7654
-20.7988
-20.8324
-20.8659
-20.8995
-20.9329
-20.9663
-20.9994
-21.0323
-21.065
-21.0974
-21.1294
-21.1612
-21.1925
-21.2234
-21.2539
-21.284
-21.3136
-21.3428
-21.3715
-21.3997
-21.4274
-21.4546
-21.4813
-21.5076
-21.5333
-21.5585
-21.5832
-21.6075
-21.6312
-21.6544
-21.6772
-21.6995
-21.7213
-21.7426
-21.7634
-21.7838
-21.8038
-21.8233
-21.8423
-21.8609
-21.8791
-21.8968
-21.9142
-21.9311
-21.9476
-21.9637
-21.9793
-21.9946
-22.0095
-22.024
-22.0381
-22.0518
-22.0652
-22.0782
-22.0908
-22.103
-22.1149
-22.1264
-22.1376
-22.1484
-22.1589
-22.169
-20.2549
-20.2584
-20.2653
-20.2751
-20.2877
-20.3029
-20.3204
-20.34
-20.3616
-20.3848
-20.4097
-20.4359
-20.4634
-20.492
-20.5216
-20.552
-20.5832
-20.6149
-20.6472
-20.6799
-20.7129
-20.7462
-20.7796
-20.8132
-20.8468
-20.8803
-20.9138
-20.9471
-20.9802
-21.0132
-21.0458
-21.0782
-21.1102
-21.1419
-21.1732
-21.2041
-21.2345
-21.2646
-21.2941
-21.3232
-21.3519
-21.38
-21.4077
-21.4348
-21.4614
-21.4876
-21.5132
-21.5383
-21.563
-21.5871
-21.6107
-21.6339
-21.6565
-21.6787
-21.7004
-21.7216
-21.7423
-21.7626
-21.7824
-21.8018
-21.8208
-21.8393
-21.8574
-21.875
-21.8923
-21.9091
-21.9256
-21.9416
-21.9572
-21.9725
-21.9873
-22.0018
-22.0159
-22.0296
-22.043
-22.056
-22.0686
-22.0809
-22.0928
-22.1044
-22.1156
-22.1264
-22.137
-22.1472
-20.2357
-20.2393
-20.2461
-20.256
-20.2686
-20.2838
-20.3013
-20.3209
-20.3425
-20.3658
-20.3906
-20.4169
-20.4444
-20.473
-20.5026
-20.5331
-20.5642
-20.596
-20.6283
-20.6611
-20.6941
-20.7274
-20.7608
-20.7944
-20.828
-20.8615
-20.895
-20.9283
-20.9615
-20.9944
-21.027
-21.0594
-21.0914
-21.123
-21.1543
-21.1852
-21.2156
-21.2456
-21.2751
-21.3041
-21.3327
-21.3608
-21.3884
-21.4154
-21.442
-21.4681
-21.4936
-21.5186
-21.5432
-21.5672
-21.5907
-21.6137
-21.6363
-21.6583
-21.6799
-21.701
-21.7216
-21.7417
-21.7615
-21.7807
-21.7996
-21.818
-21.836
-21.8535
-21.8707
-21.8874
-21.9038
-21.9198
-21.9353
-21.9505
-21.9654
-21.9798
-21.9939
-22.0076
-22.0209
-22.0339
-22.0466
-22.0589
-22.0708
-22.0824
-22.0936
-22.1046
-22.1151
-22.1254
-20.217
-20.2205
-20.2274
-20.2372
-20.2499
-20.2651
-20.2826
-20.3022
-20.3238
-20.3471
-20.372
-20.3983
-20.4258
-20.4545
-20.4841
-20.5145
-20.5457
-20.5775
-20.6099
-20.6426
-20.6757
-20.709
-20.7424
-20.776
-20.8096
-20.8432
-20.8766
-20.91
-20.9431
-20.976
-21.0087
-21.041
-21.073
-21.1046
-21.1359
-21.1667
-21.1971
-21.227
-21.2565
-21.2855
-21.314
-21.342
-21.3695
-21.3965
-21.423
-21.449
-21.4745
-21.4994
-21.5238
-21.5477
-21.5711
-21.5941
-21.6165
-21.6384
-21.6598
-21.6808
-21.7013
-21.7213
-21.7409
-21.76
-21.7788
-21.797
-21.8149
-21.8323
-21.8494
-21.866
-21.8823
-21.8982
-21.9137
-21.9288
-21.9436
-21.958
-21.972
-21.9857
-21.999
-22.012
-22.0246
-22.0369
-22.0489
-22.0605
-22.0718
-22.0828
-22.0934
-22.1037
-20.1986
-20.2022
-20.209
-20.2189
-20.2316
-20.2468
-20.2643
-20.2839
-20.3055
-20.3289
-20.3537
-20.38
-20.4076
-20.4363
-20.4659
-20.4964
-20.5276
-20.5594
-20.5918
-20.6246
-20.6576
-20.691
-20.7245
-20.758
-20.7917
-20.8252
-20.8587
-20.892
-20.9252
-20.9581
-20.9907
-21.0231
-21.055
-21.0867
-21.1179
-21.1487
-21.179
-21.2089
-21.2384
-21.2673
-21.2958
-21.3238
-21.3512
-21.3781
-21.4045
-21.4304
-21.4558
-21.4807
-21.505
-21.5288
-21.5521
-21.5749
-21.5972
-21.619
-21.6403
-21.6611
-21.6815
-21.7014
-21.7208
-21.7398
-21.7584
-21.7765
-21.7942
-21.8116
-21.8285
-21.845
-21.8611
-21.8769
-21.8923
-21.9074
-21.922
-21.9364
-21.9503
-21.964
-21.9773
-21.9902
-22.0029
-22.0151
-22.0271
-22.0388
-22.0501
-22.0611
-22.0717
-22.0821
-20.1807
-20.1843
-20.1911
-20.201
-20.2137
-20.2289
-20.2464
-20.2661
-20.2877
-20.311
-20.3359
-20.3622
-20.3898
-20.4185
-20.4482
-20.4787
-20.5099
-20.5418
-20.5742
-20.6069
-20.64
-20.6734
-20.7069
-20.7405
-20.7741
-20.8077
-20.8412
-20.8745
-20.9077
-20.9406
-20.9732
-21.0056
-21.0375
-21.0691
-21.1003
-21.1311
-21.1615
-21.1913
-21.2207
-21.2497
-21.2781
-21.306
-21.3334
-21.3602
-21.3866
-21.4124
-21.4377
-21.4624
-21.4867
-21.5104
-21.5336
-21.5563
-21.5784
-21.6001
-21.6213
-21.642
-21.6622
-21.6819
-21.7012
-21.7201
-21.7385
-21.7564
-21.774
-21.7912
-21.8079
-21.8243
-21.8403
-21.856
-21.8713
-21.8862
-21.9008
-21.915
-21.9289
-21.9425
-21.9557
-21.9686
-21.9812
-21.9935
-22.0054
-22.0171
-22.0284
-22.0394
-22.0501
-22.0606
-20.1632
-20.1668
-20.1736
-20.1835
-20.1962
-20.2114
-20.229
-20.2486
-20.2702
-20.2936
-20.3185
-20.3449
-20.3725
-20.4012
-20.4309
-20.4614
-20.4927
-20.5245
-20.5569
-20.5898
-20.6229
-20.6563
-20.6898
-20.7234
-20.7571
-20.7907
-20.8242
-20.8575
-20.8907
-20.9236
-20.9562
-20.9885
-21.0205
-21.0521
-21.0833
-21.1141
-21.1444
-21.1742
-21.2036
-21.2325
-21.2609
-21.2887
-21.3161
-21.3429
-21.3691
-21.3949
-21.4201
-21.4448
-21.4689
-21.4925
-21.5156
-21.5382
-21.5602
-21.5818
-21.6028
-21.6234
-21.6434
-21.663
-21.6822
-21.7008
-21.7191
-21.7369
-21.7543
-21.7713
-21.7879
-21.8041
-21.8199
-21.8354
-21.8505
-21.8653
-21.8798
-21.8939
-21.9077
-21.9211
-21.9343
-21.9471
-21.9597
-21.9719
-21.9838
-21.9955
-22.0068
-22.0178
-22.0286
-22.039
-20.1462
-20.1497
-20.1566
-20.1665
-20.1791
-20.1944
-20.2119
-20.2316
-20.2532
-20.2766
-20.3016
-20.3279
-20.3555
-20.3843
-20.414
-20.4446
-20.4758
-20.5078
-20.5402
-20.573
-20.6062
-20.6396
-20.6731
-20.7068
-20.7404
-20.774
-20.8076
-20.8409
-20.8741
-20.907
-20.9397
-20.972
-21.004
-21.0355
-21.0667
-21.0975
-21.1278
-21.1576
-21.187
-21.2158
-21.2441
-21.272
-21.2993
-21.326
-21.3522
-21.3779
-21.4031
-21.4277
-21.4517
-21.4752
-21.4982
-21.5207
-21.5426
-21.564
-21.585
-21.6054
-21.6253
-21.6447
-21.6637
-21.6822
-21.7003
-21.7179
-21.7351
-21.7519
-21.7683
-21.7844
-21.8
-21.8153
-21.8303
-21.8449
-21.8591
-21.8731
-21.8868
-21.9001
-21.9131
-21.9259
-21.9383
-21.9505
-21.9624
-21.974
-21.9853
-21.9963
-22.007
-22.0175
-20.1296
-20.1331
-20.14
-20.1499
-20.1626
-20.1778
-20.1954
-20.2151
-20.2367
-20.2601
-20.2851
-20.3114
-20.3391
-20.3678
-20.3976
-20.4282
-20.4595
-20.4914
-20.5239
-20.5567
-20.5899
-20.6233
-20.6569
-20.6906
-20.7243
-20.7579
-20.7914
-20.8248
-20.858
-20.8909
-20.9236
-20.9559
-20.9879
-21.0195
-21.0506
-21.0814
-21.1117
-21.1415
-21.1708
-21.1996
-21.2279
-21.2557
-21.283
-21.3097
-21.3359
-21.3615
-21.3866
-21.4111
-21.4351
-21.4585
-21.4814
-21.5038
-21.5256
-21.5469
-21.5677
-21.588
-21.6078
-21.627
-21.6458
-21.6642
-21.6821
-21.6995
-21.7165
-21.7331
-21.7493
-21.7651
-21.7806
-21.7957
-21.8104
-21.8248
-21.8389
-21.8527
-21.8662
-21.8793
-21.8922
-21.9048
-21.9172
-21.9292
-21.941
-21.9525
-21.9638
-21.9748
-21.9855
-21.996
-20.1134
-20.117
-20.1238
-20.1337
-20.1464
-20.1617
-20.1793
-20.199
-20.2206
-20.244
-20.269
-20.2954
-20.3231
-20.3518
-20.3816
-20.4122
-20.4436
-20.4755
-20.508
-20.5409
-20.5741
-20.6075
-20.6412
-20.6748
-20.7085
-20.7422
-20.7758
-20.8092
-20.8424
-20.8753
-20.908
-20.9403
-20.9723
-21.0039
-21.035
-21.0658
-21.0961
-21.1259
-21.1552
-21.184
-21.2123
-21.24
-21.2672
-21.2939
-21.3201
-21.3456
-21.3707
-21.3951
-21.4191
-21.4424
-21.4652
-21.4875
-21.5092
-21.5304
-21.5511
-21.5712
-21.5909
-21.61
-21.6287
-21.6468
-21.6645
-21.6818
-21.6986
-21.715
-21.7309
-21.7465
-21.7617
-21.7766
-21.7911
-21.8053
-21.8191
-21.8327
-21.8459
-21.8589
-21.8716
-21.884
-21.8962
-21.9081
-21.9198
-21.9312
-21.9424
-21.9533
-21.964
-21.9744
-20.0977
-20.1013
-20.1082
-20.1181
-20.1308
-20.146
-20.1636
-20.1833
-20.205
-20.2284
-20.2534
-20.2798
-20.3075
-20.3363
-20.3661
-20.3967
-20.4281
-20.4601
-20.4926
-20.5255
-20.5588
-20.5922
-20.6259
-20.6596
-20.6933
-20.727
-20.7606
-20.794
-20.8272
-20.8602
-20.8928
-20.9252
-20.9572
-20.9888
-21.0199
-21.0507
-21.0809
-21.1107
-21.14
-21.1688
-21.1971
-21.2248
-21.252
-21.2787
-21.3048
-21.3303
-21.3553
-21.3797
-21.4036
-21.4269
-21.4496
-21.4718
-21.4935
-21.5146
-21.5351
-21.5552
-21.5747
-21.5937
-21.6121
-21.6301
-21.6477
-21.6647
-21.6813
-21.6975
-21.7132
-21.7286
-21.7435
-21.7581
-21.7724
-21.7863
-21.7999
-21.8132
-21.8262
-21.8389
-21.8514
-21.8636
-21.8755
-21.8873
-21.8988
-21.91
-21.9211
-21.9319
-21.9425
-21.9528
-20.0825
-20.0861
-20.0929
-20.1028
-20.1155
-20.1308
-20.1484
-20.1681
-20.1898
-20.2132
-20.2383
-20.2647
-20.2924
-20.3212
-20.351
-20.3817
-20.4131
-20.4451
-20.4777
-20.5106
-20.5439
-20.5774
-20.611
-20.6448
-20.6785
-20.7122
-20.7458
-20.7793
-20.8125
-20.8455
-20.8782
-20.9105
-20.9425
-20.9741
-21.0053
-21.036
-21.0663
-21.0961
-21.1254
-21.1542
-21.1825
-21.2102
-21.2374
-21.264
-21.2901
-21.3156
-21.3405
-21.3649
-21.3887
-21.412
-21.4346
-21.4568
-21.4783
-21.4993
-21.5198
-21.5397
-21.5591
-21.578
-21.5963
-21.6142
-21.6315
-21.6484
-21.6648
-21.6807
-21.6962
-21.7113
-21.726
-21.7404
-21.7543
-21.7679
-21.7812
-21.7942
-21.8069
-21.8194
-21.8316
-21.8435
-21.8552
-21.8667
-21.8779
-21.889
-21.8999
-21.9105
-21.921
-21.9312
-20.0677
-20.0713
-20.0782
-20.0881
-20.1008
-20.116
-20.1337
-20.1534
-20.1751
-20.1985
-20.2236
-20.25
-20.2778
-20.3066
-20.3364
-20.3671
-20.3986
-20.4306
-20.4632
-20.4961
-20.5294
-20.563
-20.5967
-20.6304
-20.6642
-20.6979
-20.7316
-20.765
-20.7983
-20.8313
-20.864
-20.8963
-20.9284
-20.96
-20.9912
-21.0219
-21.0522
-21.082
-21.1113
-21.1401
-21.1683
-21.196
-21.2232
-21.2498
-21.2759
-21.3013
-21.3263
-21.3506
-21.3744
-21.3976
-21.4202
-21.4423
-21.4638
-21.4848
-21.5052
-21.525
-21.5443
-21.563
-21.5812
-21.5989
-21.6161
-21.6328
-21.649
-21.6648
-21.6801
-21.6949
-21.7093
-21.7234
-21.737
-21.7503
-21.7633
-21.776
-21.7883
-21.8004
-21.8123
-21.8239
-21.8353
-21.8464
-21.8574
-21.8682
-21.8788
-21.8893
-21.8995
-21.9096
-20.0534
-20.057
-20.0639
-20.0738
-20.0865
-20.1018
-20.1194
-20.1391
-20.1608
-20.1843
-20.2094
-20.2358
-20.2636
-20.2925
-20.3223
-20.353
-20.3845
-20.4165
-20.4491
-20.4821
-20.5155
-20.549
-20.5827
-20.6165
-20.6503
-20.6841
-20.7177
-20.7512
-20.7845
-20.8175
-20.8502
-20.8826
-20.9147
-20.9463
-20.9775
-21.0082
-21.0385
-21.0683
-21.0976
-21.1264
-21.1547
-21.1824
-21.2095
-21.2361
-21.2622
-21.2877
-21.3126
-21.3369
-21.3606
-21.3838
-21.4064
-21.4285
-21.4499
-21.4708
-21.4911
-21.5109
-21.5301
-21.5488
-21.5669
-21.5845
-21.6015
-21.6181
-21.6341
-21.6496
-21.6647
-21.6793
-21.6934
-21.7072
-21.7205
-21.7335
-21.7461
-21.7584
-21.7704
-21.7821
-21.7936
-21.8048
-21.8158
-21.8267
-21.8373
-21.8478
-21.8581
-21.8682
-21.8782
-21.8881
-20.0396
-20.0431
-20.05
-20.0599
-20.0727
-20.0879
-20.1056
-20.1253
-20.147
-20.1705
-20.1956
-20.2221
-20.2499
-20.2787
-20.3086
-20.3394
-20.3708
-20.4029
-20.4356
-20.4686
-20.5019
-20.5355
-20.5693
-20.6031
-20.6369
-20.6707
-20.7044
-20.7379