/*--------------------------------*- C++ -*----------------------------------*\
  =========                 |
  \\      /  F ield         | OpenFOAM: The Open Source CFD Toolbox
   \\    /   O peration     | Website:  https://openfoam.org
    \\  /    A nd           | Version:  10
     \\/     M anipulation  |
\*---------------------------------------------------------------------------*/
FoamFile
{
    format      ascii;
    class       volScalarField;
    location    "0";
    object      p_d;
}
// * * * * * * * * * * * * * * * * * * * * * * * * * * * * * * * * * * * * * //

dimensions      [0 2 -2 0 0 0 0];

internalField   nonuniform List<scalar> 
84253
(
-0.0510915
-0.0511017
-0.0511214
-0.05115
-0.0511866
-0.0512305
-0.0512813
-0.0513384
-0.0514011
-0.051469
-0.0515417
-0.0516186
-0.0516993
-0.0517836
-0.0518709
-0.051961
-0.0520535
-0.0521481
-0.0522445
-0.0523425
-0.0524418
-0.0525422
-0.0526434
-0.0527452
-0.0528475
-0.05295
-0.0530525
-0.053155
-0.0532573
-0.0533592
-0.0534605
-0.0535613
-0.0536613
-0.0537605
-0.0538588
-0.053956
-0.0540521
-0.0541471
-0.0542408
-0.0543333
-0.0544244
-0.0545141
-0.0546024
-0.0546892
-0.0547745
-0.0548582
-0.0549404
-0.055021
-0.0551001
-0.0551775
-0.0552533
-0.0553275
-0.0554
-0.055471
-0.0555403
-0.055608
-0.0556741
-0.0557385
-0.0558014
-0.0558627
-0.0559225
-0.0559807
-0.0560373
-0.0560925
-0.0561461
-0.0561983
-0.056249
-0.0562983
-0.0563462
-0.0563926
-0.0564378
-0.0564815
-0.056524
-0.0565652
-0.0566051
-0.0566437
-0.0566811
-0.0567174
-0.0567524
-0.0567863
-0.0568191
-0.0568508
-0.0568814
-0.0569109
-0.0510934
-0.0511036
-0.0511234
-0.0511519
-0.0511884
-0.0512324
-0.0512832
-0.0513402
-0.0514029
-0.0514708
-0.0515434
-0.0516202
-0.051701
-0.0517851
-0.0518724
-0.0519625
-0.0520549
-0.0521495
-0.0522459
-0.0523439
-0.0524431
-0.0525434
-0.0526446
-0.0527464
-0.0528486
-0.0529511
-0.0530536
-0.0531561
-0.0532583
-0.0533602
-0.0534616
-0.0535623
-0.0536623
-0.0537615
-0.0538598
-0.053957
-0.0540532
-0.0541481
-0.0542419
-0.0543344
-0.0544255
-0.0545153
-0.0546036
-0.0546904
-0.0547758
-0.0548596
-0.0549419
-0.0550226
-0.0551017
-0.0551792
-0.0552551
-0.0553294
-0.0554021
-0.0554731
-0.0555426
-0.0556104
-0.0556766
-0.0557412
-0.0558043
-0.0558657
-0.0559256
-0.055984
-0.0560408
-0.0560961
-0.0561499
-0.0562022
-0.0562531
-0.0563025
-0.0563505
-0.0563971
-0.0564423
-0.0564862
-0.0565287
-0.05657
-0.0566099
-0.0566486
-0.0566861
-0.0567224
-0.0567574
-0.0567913
-0.0568241
-0.0568558
-0.0568864
-0.056916
-0.0510705
-0.0510806
-0.0511004
-0.0511289
-0.0511654
-0.0512093
-0.05126
-0.0513169
-0.0513795
-0.0514473
-0.0515198
-0.0515966
-0.0516772
-0.0517613
-0.0518485
-0.0519385
-0.0520308
-0.0521253
-0.0522216
-0.0523194
-0.0524186
-0.0525188
-0.0526198
-0.0527215
-0.0528237
-0.052926
-0.0530285
-0.0531309
-0.053233
-0.0533348
-0.0534361
-0.0535367
-0.0536367
-0.0537358
-0.053834
-0.0539312
-0.0540272
-0.0541222
-0.0542159
-0.0543083
-0.0543994
-0.0544891
-0.0545773
-0.0546641
-0.0547494
-0.0548332
-0.0549154
-0.054996
-0.0550751
-0.0551525
-0.0552284
-0.0553026
-0.0553752
-0.0554461
-0.0555155
-0.0555832
-0.0556493
-0.0557138
-0.0557767
-0.055838
-0.0558978
-0.0559559
-0.0560126
-0.0560677
-0.0561213
-0.0561734
-0.056224
-0.0562732
-0.056321
-0.0563674
-0.0564124
-0.056456
-0.0564984
-0.0565394
-0.0565792
-0.0566177
-0.056655
-0.0566912
-0.0567261
-0.05676
-0.0567927
-0.0568243
-0.0568548
-0.0568843
-0.0510419
-0.051052
-0.0510718
-0.0511002
-0.0511367
-0.0511805
-0.0512311
-0.051288
-0.0513505
-0.0514182
-0.0514905
-0.0515672
-0.0516477
-0.0517317
-0.0518187
-0.0519085
-0.0520008
-0.0520951
-0.0521913
-0.052289
-0.0523881
-0.0524882
-0.0525891
-0.0526907
-0.0527927
-0.052895
-0.0529974
-0.0530997
-0.0532018
-0.0533035
-0.0534047
-0.0535053
-0.0536052
-0.0537043
-0.0538025
-0.0538996
-0.0539957
-0.0540906
-0.0541844
-0.0542768
-0.0543679
-0.0544577
-0.054546
-0.0546328
-0.0547182
-0.0548021
-0.0548844
-0.0549651
-0.0550443
-0.0551218
-0.0551978
-0.0552722
-0.0553449
-0.0554161
-0.0554856
-0.0555535
-0.0556198
-0.0556846
-0.0557477
-0.0558093
-0.0558693
-0.0559278
-0.0559848
-0.0560403
-0.0560942
-0.0561468
-0.0561978
-0.0562475
-0.0562957
-0.0563426
-0.0563881
-0.0564323
-0.0564752
-0.0565167
-0.056557
-0.056596
-0.0566338
-0.0566704
-0.0567058
-0.0567401
-0.0567731
-0.0568051
-0.056836
-0.0568658
-0.0510089
-0.051019
-0.0510387
-0.051067
-0.0511034
-0.0511472
-0.0511977
-0.0512544
-0.0513168
-0.0513843
-0.0514566
-0.0515331
-0.0516134
-0.0516972
-0.0517841
-0.0518738
-0.0519659
-0.05206
-0.0521561
-0.0522536
-0.0523525
-0.0524525
-0.0525533
-0.0526547
-0.0527566
-0.0528588
-0.052961
-0.0530632
-0.0531652
-0.0532668
-0.053368
-0.0534685
-0.0535683
-0.0536674
-0.0537655
-0.0538626
-0.0539587
-0.0540536
-0.0541473
-0.0542398
-0.0543309
-0.0544206
-0.054509
-0.0545959
-0.0546813
-0.0547652
-0.0548476
-0.0549284
-0.0550077
-0.0550854
-0.0551614
-0.0552359
-0.0553088
-0.05538
-0.0554497
-0.0555177
-0.0555842
-0.055649
-0.0557123
-0.055774
-0.0558342
-0.0558928
-0.0559498
-0.0560054
-0.0560595
-0.056112
-0.0561632
-0.0562128
-0.0562611
-0.0563079
-0.0563534
-0.0563976
-0.0564403
-0.0564818
-0.056522
-0.056561
-0.0565987
-0.0566351
-0.0566705
-0.0567046
-0.0567376
-0.0567695
-0.0568004
-0.0568301
-0.0509677
-0.0509778
-0.0509974
-0.0510257
-0.051062
-0.0511056
-0.051156
-0.0512126
-0.0512748
-0.0513422
-0.0514143
-0.0514906
-0.0515708
-0.0516544
-0.0517411
-0.0518306
-0.0519224
-0.0520164
-0.0521123
-0.0522097
-0.0523084
-0.0524081
-0.0525088
-0.05261
-0.0527118
-0.0528138
-0.0529159
-0.0530179
-0.0531198
-0.0532213
-0.0533223
-0.0534228
-0.0535225
-0.0536215
-0.0537195
-0.0538166
-0.0539126
-0.0540075
-0.0541012
-0.0541937
-0.0542848
-0.0543746
-0.054463
-0.0545499
-0.0546354
-0.0547194
-0.0548018
-0.0548828
-0.0549621
-0.0550399
-0.0551161
-0.0551906
-0.0552636
-0.055335
-0.0554048
-0.055473
-0.0555396
-0.0556046
-0.0556681
-0.0557299
-0.0557903
-0.055849
-0.0559063
-0.055962
-0.0560163
-0.0560691
-0.0561204
-0.0561703
-0.0562188
-0.0562658
-0.0563115
-0.0563559
-0.0563989
-0.0564407
-0.0564811
-0.0565203
-0.0565583
-0.056595
-0.0566306
-0.056665
-0.0566983
-0.0567304
-0.0567615
-0.0567914
-0.050923
-0.0509331
-0.0509527
-0.0509809
-0.0510171
-0.0510606
-0.0511109
-0.0511673
-0.0512293
-0.0512965
-0.0513684
-0.0514445
-0.0515245
-0.0516079
-0.0516944
-0.0517836
-0.0518753
-0.0519691
-0.0520647
-0.0521618
-0.0522603
-0.0523599
-0.0524603
-0.0525614
-0.052663
-0.0527648
-0.0528668
-0.0529687
-0.0530703
-0.0531717
-0.0532726
-0.053373
-0.0534726
-0.0535715
-0.0536695
-0.0537665
-0.0538624
-0.0539573
-0.054051
-0.0541434
-0.0542346
-0.0543244
-0.0544128
-0.0544997
-0.0545853
-0.0546693
-0.0547519
-0.0548328
-0.0549123
-0.0549902
-0.0550665
-0.0551412
-0.0552143
-0.0552859
-0.0553558
-0.0554242
-0.0554909
-0.0555561
-0.0556197
-0.0556818
-0.0557423
-0.0558013
-0.0558587
-0.0559146
-0.0559691
-0.056022
-0.0560736
-0.0561236
-0.0561723
-0.0562196
-0.0562655
-0.05631
-0.0563532
-0.0563951
-0.0564357
-0.0564751
-0.0565132
-0.0565501
-0.0565858
-0.0566203
-0.0566537
-0.056686
-0.0567172
-0.0567473
-0.0508743
-0.0508844
-0.0509039
-0.0509321
-0.0509681
-0.0510115
-0.0510616
-0.0511178
-0.0511797
-0.0512467
-0.0513183
-0.0513942
-0.051474
-0.0515571
-0.0516434
-0.0517324
-0.0518238
-0.0519173
-0.0520127
-0.0521096
-0.0522079
-0.0523072
-0.0524074
-0.0525083
-0.0526096
-0.0527112
-0.052813
-0.0529147
-0.0530162
-0.0531174
-0.0532182
-0.0533184
-0.0534179
-0.0535167
-0.0536146
-0.0537115
-0.0538074
-0.0539022
-0.0539958
-0.0540882
-0.0541794
-0.0542692
-0.0543576
-0.0544446
-0.0545302
-0.0546143
-0.0546969
-0.0547779
-0.0548575
-0.0549354
-0.0550119
-0.0550867
-0.0551599
-0.0552316
-0.0553017
-0.0553702
-0.0554371
-0.0555025
-0.0555662
-0.0556285
-0.0556891
-0.0557483
-0.0558059
-0.055862
-0.0559166
-0.0559698
-0.0560215
-0.0560717
-0.0561206
-0.056168
-0.0562141
-0.0562588
-0.0563022
-0.0563443
-0.0563851
-0.0564246
-0.0564629
-0.0564999
-0.0565358
-0.0565705
-0.0566041
-0.0566365
-0.0566679
-0.0566981
-0.0508221
-0.0508322
-0.0508516
-0.0508797
-0.0509156
-0.0509588
-0.0510087
-0.0510648
-0.0511264
-0.0511932
-0.0512646
-0.0513403
-0.0514197
-0.0515026
-0.0515886
-0.0516773
-0.0517685
-0.0518618
-0.0519568
-0.0520535
-0.0521515
-0.0522506
-0.0523506
-0.0524512
-0.0525523
-0.0526537
-0.0527552
-0.0528567
-0.0529581
-0.0530591
-0.0531597
-0.0532597
-0.0533591
-0.0534577
-0.0535555
-0.0536523
-0.0537481
-0.0538429
-0.0539365
-0.0540288
-0.0541199
-0.0542097
-0.0542981
-0.0543851
-0.0544707
-0.0545549
-0.0546375
-0.0547187
-0.0547983
-0.0548763
-0.0549529
-0.0550278
-0.0551012
-0.055173
-0.0552432
-0.0553118
-0.0553789
-0.0554444
-0.0555084
-0.0555708
-0.0556316
-0.0556909
-0.0557488
-0.0558051
-0.0558599
-0.0559132
-0.0559651
-0.0560156
-0.0560646
-0.0561123
-0.0561585
-0.0562035
-0.056247
-0.0562893
-0.0563303
-0.05637
-0.0564085
-0.0564458
-0.0564818
-0.0565167
-0.0565504
-0.056583
-0.0566146
-0.056645
-0.0507672
-0.0507772
-0.0507966
-0.0508245
-0.0508603
-0.0509034
-0.0509531
-0.0510089
-0.0510703
-0.0511369
-0.051208
-0.0512834
-0.0513626
-0.0514452
-0.0515309
-0.0516194
-0.0517102
-0.0518032
-0.051898
-0.0519944
-0.0520921
-0.0521909
-0.0522906
-0.052391
-0.0524918
-0.052593
-0.0526943
-0.0527956
-0.0528967
-0.0529975
-0.0530979
-0.0531977
-0.053297
-0.0533954
-0.0534931
-0.0535898
-0.0536855
-0.0537801
-0.0538736
-0.0539659
-0.054057
-0.0541467
-0.0542351
-0.0543222
-0.0544078
-0.0544919
-0.0545746
-0.0546558
-0.0547355
-0.0548136
-0.0548902
-0.0549653
-0.0550388
-0.0551107
-0.055181
-0.0552498
-0.0553171
-0.0553827
-0.0554468
-0.0555094
-0.0555704
-0.0556299
-0.0556879
-0.0557444
-0.0557994
-0.0558529
-0.055905
-0.0559557
-0.0560049
-0.0560527
-0.0560992
-0.0561443
-0.0561881
-0.0562305
-0.0562717
-0.0563116
-0.0563503
-0.0563877
-0.056424
-0.056459
-0.0564929
-0.0565257
-0.0565574
-0.056588
-0.0507099
-0.0507199
-0.0507392
-0.050767
-0.0508026
-0.0508455
-0.050895
-0.0509506
-0.0510118
-0.0510781
-0.051149
-0.0512241
-0.051303
-0.0513853
-0.0514707
-0.0515588
-0.0516494
-0.051742
-0.0518365
-0.0519326
-0.05203
-0.0521285
-0.0522279
-0.052328
-0.0524286
-0.0525295
-0.0526305
-0.0527316
-0.0528325
-0.0529331
-0.0530332
-0.0531329
-0.0532319
-0.0533302
-0.0534277
-0.0535242
-0.0536198
-0.0537144
-0.0538078
-0.0539
-0.053991
-0.0540807
-0.054169
-0.054256
-0.0543416
-0.0544258
-0.0545085
-0.0545897
-0.0546695
-0.0547477
-0.0548243
-0.0548995
-0.054973
-0.0550451
-0.0551155
-0.0551845
-0.0552518
-0.0553176
-0.0553819
-0.0554446
-0.0555058
-0.0555655
-0.0556236
-0.0556803
-0.0557355
-0.0557892
-0.0558415
-0.0558923
-0.0559417
-0.0559898
-0.0560364
-0.0560817
-0.0561257
-0.0561684
-0.0562097
-0.0562498
-0.0562887
-0.0563263
-0.0563628
-0.056398
-0.0564321
-0.0564651
-0.0564969
-0.0565277
-0.0506507
-0.0506606
-0.0506798
-0.0507075
-0.050743
-0.0507856
-0.050835
-0.0508903
-0.0509513
-0.0510173
-0.0510879
-0.0511627
-0.0512413
-0.0513233
-0.0514084
-0.0514962
-0.0515864
-0.0516787
-0.0517729
-0.0518686
-0.0519657
-0.0520639
-0.052163
-0.0522628
-0.0523631
-0.0524637
-0.0525645
-0.0526653
-0.0527659
-0.0528662
-0.0529662
-0.0530657
-0.0531645
-0.0532626
-0.0533598
-0.0534562
-0.0535517
-0.053646
-0.0537393
-0.0538314
-0.0539223
-0.054012
-0.0541003
-0.0541872
-0.0542728
-0.0543569
-0.0544397
-0.0545209
-0.0546007
-0.0546789
-0.0547556
-0.0548308
-0.0549045
-0.0549766
-0.0550472
-0.0551162
-0.0551837
-0.0552496
-0.055314
-0.0553769
-0.0554383
-0.0554981
-0.0555564
-0.0556133
-0.0556686
-0.0557225
-0.055775
-0.055826
-0.0558756
-0.0559238
-0.0559707
-0.0560162
-0.0560604
-0.0561032
-0.0561448
-0.0561851
-0.0562241
-0.0562619
-0.0562985
-0.056334
-0.0563682
-0.0564014
-0.0564334
-0.0564643
-0.0505899
-0.0505998
-0.0506189
-0.0506464
-0.0506818
-0.0507243
-0.0507734
-0.0508285
-0.0508892
-0.0509549
-0.0510252
-0.0510997
-0.0511779
-0.0512596
-0.0513444
-0.0514318
-0.0515217
-0.0516137
-0.0517075
-0.0518029
-0.0518997
-0.0519975
-0.0520963
-0.0521958
-0.0522958
-0.0523961
-0.0524965
-0.052597
-0.0526974
-0.0527975
-0.0528972
-0.0529964
-0.053095
-0.0531929
-0.05329
-0.0533862
-0.0534815
-0.0535757
-0.0536688
-0.0537608
-0.0538516
-0.0539411
-0.0540293
-0.0541162
-0.0542017
-0.0542858
-0.0543685
-0.0544498
-0.0545295
-0.0546078
-0.0546846
-0.0547598
-0.0548335
-0.0549057
-0.0549764
-0.0550455
-0.0551131
-0.0551792
-0.0552437
-0.0553067
-0.0553682
-0.0554281
-0.0554866
-0.0555436
-0.0555992
-0.0556532
-0.0557059
-0.0557571
-0.0558069
-0.0558553
-0.0559023
-0.055948
-0.0559924
-0.0560354
-0.0560772
-0.0561176
-0.0561569
-0.0561949
-0.0562317
-0.0562673
-0.0563017
-0.0563351
-0.0563673
-0.0563984
-0.0505279
-0.0505378
-0.0505568
-0.0505842
-0.0506194
-0.0506617
-0.0507105
-0.0507654
-0.0508258
-0.0508912
-0.0509612
-0.0510354
-0.0511133
-0.0511947
-0.0512791
-0.0513662
-0.0514557
-0.0515473
-0.0516408
-0.0517358
-0.0518323
-0.0519298
-0.0520282
-0.0521273
-0.052227
-0.052327
-0.0524271
-0.0525273
-0.0526274
-0.0527272
-0.0528267
-0.0529256
-0.053024
-0.0531217
-0.0532185
-0.0533145
-0.0534096
-0.0535037
-0.0535966
-0.0536884
-0.0537791
-0.0538685
-0.0539566
-0.0540434
-0.0541288
-0.0542129
-0.0542955
-0.0543767
-0.0544565
-0.0545347
-0.0546115
-0.0546868
-0.0547605
-0.0548328
-0.0549035
-0.0549727
-0.0550404
-0.0551065
-0.0551712
-0.0552343
-0.0552959
-0.055356
-0.0554147
-0.0554718
-0.0555275
-0.0555817
-0.0556345
-0.0556859
-0.0557359
-0.0557844
-0.0558317
-0.0558775
-0.0559221
-0.0559653
-0.0560072
-0.0560479
-0.0560873
-0.0561255
-0.0561624
-0.0561982
-0.0562329
-0.0562664
-0.0562987
-0.05633
-0.0504651
-0.0504749
-0.0504938
-0.0505211
-0.0505561
-0.0505982
-0.0506469
-0.0507015
-0.0507616
-0.0508267
-0.0508964
-0.0509702
-0.0510478
-0.0511288
-0.0512128
-0.0512996
-0.0513887
-0.05148
-0.0515731
-0.0516678
-0.0517638
-0.051861
-0.051959
-0.0520578
-0.0521571
-0.0522568
-0.0523566
-0.0524565
-0.0525563
-0.0526558
-0.052755
-0.0528536
-0.0529517
-0.0530491
-0.0531458
-0.0532416
-0.0533364
-0.0534303
-0.0535231
-0.0536147
-0.0537052
-0.0537945
-0.0538824
-0.0539691
-0.0540544
-0.0541384
-0.054221
-0.0543021
-0.0543818
-0.0544601
-0.0545368
-0.0546121
-0.0546859
-0.0547582
-0.0548289
-0.0548982
-0.0549659
-0.0550322
-0.0550969
-0.0551601
-0.0552218
-0.055282
-0.0553408
-0.0553981
-0.0554539
-0.0555083
-0.0555612
-0.0556128
-0.0556629
-0.0557116
-0.055759
-0.0558051
-0.0558498
-0.0558932
-0.0559353
-0.0559761
-0.0560157
-0.056054
-0.0560912
-0.0561272
-0.056162
-0.0561956
-0.0562282
-0.0562596
-0.0504017
-0.0504115
-0.0504303
-0.0504575
-0.0504923
-0.0505342
-0.0505826
-0.0506369
-0.0506968
-0.0507616
-0.0508309
-0.0509044
-0.0509817
-0.0510623
-0.0511459
-0.0512323
-0.0513211
-0.0514119
-0.0515047
-0.051599
-0.0516946
-0.0517914
-0.0518891
-0.0519876
-0.0520865
-0.0521858
-0.0522853
-0.0523849
-0.0524843
-0.0525835
-0.0526824
-0.0527808
-0.0528786
-0.0529757
-0.0530721
-0.0531677
-0.0532623
-0.0533559
-0.0534485
-0.05354
-0.0536303
-0.0537194
-0.0538072
-0.0538938
-0.053979
-0.0540628
-0.0541453
-0.0542263
-0.054306
-0.0543842
-0.0544609
-0.0545361
-0.0546099
-0.0546822
-0.054753
-0.0548223
-0.05489
-0.0549563
-0.0550211
-0.0550844
-0.0551462
-0.0552065
-0.0552654
-0.0553228
-0.0553787
-0.0554333
-0.0554863
-0.055538
-0.0555883
-0.0556372
-0.0556847
-0.0557309
-0.0557758
-0.0558193
-0.0558616
-0.0559026
-0.0559424
-0.0559809
-0.0560182
-0.0560543
-0.0560893
-0.0561231
-0.0561558
-0.0561874
-0.0503381
-0.0503478
-0.0503665
-0.0503935
-0.0504282
-0.0504698
-0.050518
-0.0505721
-0.0506316
-0.0506961
-0.0507651
-0.0508383
-0.0509151
-0.0509954
-0.0510787
-0.0511646
-0.051253
-0.0513435
-0.0514358
-0.0515298
-0.0516251
-0.0517215
-0.0518188
-0.0519168
-0.0520154
-0.0521144
-0.0522135
-0.0523127
-0.0524119
-0.0525107
-0.0526093
-0.0527074
-0.0528049
-0.0529018
-0.0529979
-0.0530932
-0.0531875
-0.0532809
-0.0533733
-0.0534646
-0.0535547
-0.0536436
-0.0537312
-0.0538176
-0.0539027
-0.0539864
-0.0540688
-0.0541497
-0.0542293
-0.0543074
-0.054384
-0.0544592
-0.0545329
-0.0546052
-0.0546759
-0.0547452
-0.054813
-0.0548794
-0.0549442
-0.0550075
-0.0550694
-0.0551298
-0.0551888
-0.0552463
-0.0553023
-0.0553569
-0.0554101
-0.0554619
-0.0555123
-0.0555614
-0.055609
-0.0556554
-0.0557004
-0.0557441
-0.0557865
-0.0558277
-0.0558676
-0.0559063
-0.0559437
-0.05598
-0.0560152
-0.0560491
-0.056082
-0.0561138
-0.0502743
-0.050284
-0.0503026
-0.0503295
-0.050364
-0.0504054
-0.0504533
-0.0505071
-0.0505664
-0.0506305
-0.0506992
-0.050772
-0.0508485
-0.0509284
-0.0510113
-0.0510969
-0.0511849
-0.051275
-0.0513669
-0.0514604
-0.0515553
-0.0516513
-0.0517483
-0.0518459
-0.0519442
-0.0520427
-0.0521415
-0.0522404
-0.0523392
-0.0524377
-0.0525359
-0.0526337
-0.0527309
-0.0528275
-0.0529233
-0.0530183
-0.0531124
-0.0532056
-0.0532977
-0.0533887
-0.0534786
-0.0535673
-0.0536548
-0.053741
-0.0538259
-0.0539095
-0.0539917
-0.0540725
-0.0541519
-0.0542299
-0.0543065
-0.0543816
-0.0544553
-0.0545275
-0.0545982
-0.0546674
-0.0547352
-0.0548015
-0.0548664
-0.0549298
-0.0549917
-0.0550522
-0.0551112
-0.0551687
-0.0552249
-0.0552796
-0.0553329
-0.0553848
-0.0554353
-0.0554844
-0.0555322
-0.0555787
-0.0556239
-0.0556677
-0.0557103
-0.0557516
-0.0557916
-0.0558304
-0.0558681
-0.0559045
-0.0559398
-0.0559739
-0.0560069
-0.0560388
-0.0502107
-0.0502203
-0.0502389
-0.0502656
-0.0502999
-0.0503411
-0.0503888
-0.0504423
-0.0505013
-0.0505651
-0.0506334
-0.0507059
-0.050782
-0.0508615
-0.050944
-0.0510292
-0.0511168
-0.0512065
-0.051298
-0.0513911
-0.0514856
-0.0515813
-0.0516778
-0.0517751
-0.0518729
-0.0519711
-0.0520696
-0.0521681
-0.0522665
-0.0523647
-0.0524626
-0.05256
-0.0526569
-0.0527532
-0.0528487
-0.0529434
-0.0530372
-0.0531301
-0.053222
-0.0533127
-0.0534024
-0.0534909
-0.0535781
-0.0536641
-0.0537488
-0.0538322
-0.0539143
-0.0539949
-0.0540742
-0.0541521
-0.0542286
-0.0543036
-0.0543772
-0.0544493
-0.05452
-0.0545892
-0.0546569
-0.0547232
-0.054788
-0.0548514
-0.0549133
-0.0549738
-0.0550329
-0.0550905
-0.0551467
-0.0552015
-0.0552548
-0.0553068
-0.0553574
-0.0554067
-0.0554546
-0.0555012
-0.0555464
-0.0555904
-0.0556331
-0.0556745
-0.0557147
-0.0557537
-0.0557914
-0.055828
-0.0558634
-0.0558977
-0.0559308
-0.0559628
-0.0501475
-0.050157
-0.0501755
-0.050202
-0.0502362
-0.0502772
-0.0503246
-0.0503778
-0.0504365
-0.0505
-0.050568
-0.0506401
-0.0507158
-0.0507949
-0.050877
-0.0509618
-0.051049
-0.0511383
-0.0512294
-0.0513222
-0.0514162
-0.0515115
-0.0516076
-0.0517045
-0.051802
-0.0518998
-0.0519979
-0.052096
-0.052194
-0.0522919
-0.0523894
-0.0524865
-0.0525831
-0.0526791
-0.0527743
-0.0528687
-0.0529622
-0.0530548
-0.0531464
-0.0532369
-0.0533263
-0.0534145
-0.0535015
-0.0535873
-0.0536718
-0.053755
-0.0538368
-0.0539173
-0.0539965
-0.0540742
-0.0541505
-0.0542254
-0.0542989
-0.0543709
-0.0544415
-0.0545107
-0.0545783
-0.0546446
-0.0547094
-0.0547727
-0.0548346
-0.0548951
-0.0549541
-0.0550118
-0.055068
-0.0551228
-0.0551763
-0.0552283
-0.055279
-0.0553283
-0.0553763
-0.055423
-0.0554684
-0.0555124
-0.0555552
-0.0555968
-0.0556371
-0.0556762
-0.055714
-0.0557507
-0.0557863
-0.0558207
-0.0558539
-0.0558861
-0.0500847
-0.0500942
-0.0501126
-0.050139
-0.0501729
-0.0502137
-0.0502609
-0.0503139
-0.0503722
-0.0504354
-0.050503
-0.0505747
-0.0506501
-0.0507288
-0.0508106
-0.050895
-0.0509817
-0.0510706
-0.0511613
-0.0512536
-0.0513473
-0.0514421
-0.0515379
-0.0516344
-0.0517315
-0.0518289
-0.0519266
-0.0520243
-0.052122
-0.0522195
-0.0523167
-0.0524135
-0.0525097
-0.0526053
-0.0527002
-0.0527943
-0.0528876
-0.0529798
-0.0530711
-0.0531614
-0.0532505
-0.0533384
-0.0534252
-0.0535107
-0.053595
-0.053678
-0.0537596
-0.0538399
-0.0539188
-0.0539964
-0.0540725
-0.0541473
-0.0542206
-0.0542925
-0.054363
-0.0544321
-0.0544997
-0.0545658
-0.0546306
-0.0546939
-0.0547557
-0.0548162
-0.0548752
-0.0549328
-0.0549891
-0.0550439
-0.0550974
-0.0551495
-0.0552002
-0.0552496
-0.0552977
-0.0553444
-0.0553899
-0.055434
-0.0554769
-0.0555186
-0.055559
-0.0555982
-0.0556362
-0.055673
-0.0557086
-0.0557431
-0.0557765
-0.0558088
-0.0500226
-0.050032
-0.0500503
-0.0500766
-0.0501103
-0.0501509
-0.0501978
-0.0502505
-0.0503085
-0.0503714
-0.0504387
-0.0505101
-0.0505851
-0.0506634
-0.0507447
-0.0508287
-0.0509151
-0.0510035
-0.0510939
-0.0511858
-0.051279
-0.0513735
-0.0514688
-0.0515649
-0.0516616
-0.0517586
-0.0518559
-0.0519533
-0.0520507
-0.0521478
-0.0522446
-0.052341
-0.0524369
-0.0525322
-0.0526268
-0.0527206
-0.0528135
-0.0529054
-0.0529964
-0.0530864
-0.0531752
-0.0532629
-0.0533494
-0.0534346
-0.0535186
-0.0536014
-0.0536828
-0.0537629
-0.0538416
-0.0539189
-0.0539949
-0.0540695
-0.0541426
-0.0542144
-0.0542847
-0.0543537
-0.0544212
-0.0544872
-0.0545519
-0.0546151
-0.0546769
-0.0547373
-0.0547963
-0.0548539
-0.0549101
-0.054965
-0.0550184
-0.0550706
-0.0551213
-0.0551708
-0.0552189
-0.0552657
-0.0553112
-0.0553554
-0.0553984
-0.0554401
-0.0554806
-0.0555199
-0.055558
-0.0555949
-0.0556306
-0.0556652
-0.0556987
-0.0557311
-0.0499613
-0.0499707
-0.0499888
-0.0500149
-0.0500485
-0.0500889
-0.0501355
-0.050188
-0.0502457
-0.0503082
-0.0503752
-0.0504461
-0.0505208
-0.0505987
-0.0506797
-0.0507632
-0.0508492
-0.0509373
-0.0510272
-0.0511187
-0.0512115
-0.0513055
-0.0514005
-0.0514962
-0.0515925
-0.0516892
-0.0517861
-0.0518831
-0.05198
-0.0520768
-0.0521733
-0.0522694
-0.0523649
-0.0524599
-0.0525541
-0.0526475
-0.0527401
-0.0528318
-0.0529225
-0.0530121
-0.0531006
-0.053188
-0.0532742
-0.0533592
-0.053443
-0.0535254
-0.0536066
-0.0536864
-0.0537649
-0.053842
-0.0539178
-0.0539921
-0.0540651
-0.0541367
-0.0542069
-0.0542756
-0.054343
-0.054409
-0.0544735
-0.0545366
-0.0545983
-0.0546587
-0.0547176
-0.0547752
-0.0548313
-0.0548861
-0.0549396
-0.0549917
-0.0550425
-0.055092
-0.0551401
-0.0551869
-0.0552325
-0.0552768
-0.0553198
-0.0553616
-0.0554022
-0.0554415
-0.0554797
-0.0555167
-0.0555526
-0.0555873
-0.0556208
-0.0556533
-0.0499008
-0.0499102
-0.0499282
-0.0499542
-0.0499876
-0.0500277
-0.0500741
-0.0501263
-0.0501837
-0.0502459
-0.0503125
-0.0503831
-0.0504574
-0.050535
-0.0506155
-0.0506987
-0.0507842
-0.0508719
-0.0509614
-0.0510525
-0.0511449
-0.0512385
-0.0513331
-0.0514284
-0.0515243
-0.0516206
-0.0517171
-0.0518137
-0.0519103
-0.0520068
-0.0521029
-0.0521986
-0.0522938
-0.0523884
-0.0524823
-0.0525754
-0.0526677
-0.052759
-0.0528494
-0.0529387
-0.0530269
-0.053114
-0.0531999
-0.0532846
-0.0533681
-0.0534503
-0.0535312
-0.0536107
-0.053689
-0.0537658
-0.0538414
-0.0539155
-0.0539883
-0.0540597
-0.0541296
-0.0541982
-0.0542654
-0.0543312
-0.0543956
-0.0544586
-0.0545202
-0.0545805
-0.0546393
-0.0546968
-0.0547529
-0.0548077
-0.0548611
-0.0549132
-0.0549639
-0.0550134
-0.0550615
-0.0551084
-0.055154
-0.0551983
-0.0552414
-0.0552832
-0.0553239
-0.0553633
-0.0554015
-0.0554386
-0.0554745
-0.0555093
-0.055543
-0.0555756
-0.0498413
-0.0498506
-0.0498686
-0.0498944
-0.0499276
-0.0499676
-0.0500137
-0.0500656
-0.0501227
-0.0501846
-0.0502509
-0.0503211
-0.050395
-0.0504722
-0.0505523
-0.0506351
-0.0507203
-0.0508075
-0.0508966
-0.0509873
-0.0510793
-0.0511725
-0.0512667
-0.0513616
-0.0514571
-0.051553
-0.0516492
-0.0517454
-0.0518417
-0.0519377
-0.0520335
-0.0521289
-0.0522237
-0.052318
-0.0524116
-0.0525043
-0.0525963
-0.0526873
-0.0527773
-0.0528663
-0.0529543
-0.053041
-0.0531266
-0.053211
-0.0532942
-0.0533761
-0.0534567
-0.053536
-0.053614
-0.0536906
-0.0537658
-0.0538397
-0.0539123
-0.0539834
-0.0540532
-0.0541216
-0.0541886
-0.0542542
-0.0543184
-0.0543813
-0.0544427
-0.0545029
-0.0545616
-0.054619
-0.054675
-0.0547297
-0.054783
-0.0548351
-0.0548858
-0.0549352
-0.0549834
-0.0550302
-0.0550758
-0.0551202
-0.0551633
-0.0552052
-0.0552459
-0.0552853
-0.0553236
-0.0553608
-0.0553968
-0.0554316
-0.0554654
-0.0554981
-0.0497829
-0.0497922
-0.04981
-0.0498358
-0.0498688
-0.0499085
-0.0499544
-0.050006
-0.0500628
-0.0501244
-0.0501903
-0.0502602
-0.0503337
-0.0504105
-0.0504903
-0.0505727
-0.0506574
-0.0507443
-0.0508329
-0.0509232
-0.0510149
-0.0511077
-0.0512014
-0.051296
-0.0513911
-0.0514866
-0.0515824
-0.0516783
-0.0517742
-0.0518699
-0.0519653
-0.0520603
-0.0521548
-0.0522487
-0.052342
-0.0524344
-0.052526
-0.0526167
-0.0527065
-0.0527951
-0.0528827
-0.0529692
-0.0530545
-0.0531386
-0.0532214
-0.053303
-0.0533833
-0.0534623
-0.05354
-0.0536163
-0.0536913
-0.053765
-0.0538372
-0.0539081
-0.0539777
-0.0540458
-0.0541126
-0.054178
-0.0542421
-0.0543047
-0.054366
-0.054426
-0.0544846
-0.0545419
-0.0545978
-0.0546524
-0.0547056
-0.0547576
-0.0548083
-0.0548576
-0.0549058
-0.0549526
-0.0549982
-0.0550426
-0.0550857
-0.0551276
-0.0551683
-0.0552078
-0.0552462
-0.0552834
-0.0553194
-0.0553544
-0.0553882
-0.0554209
-0.0497257
-0.0497349
-0.0497526
-0.0497782
-0.0498111
-0.0498506
-0.0498963
-0.0499476
-0.0500041
-0.0500653
-0.0501309
-0.0502005
-0.0502736
-0.0503501
-0.0504294
-0.0505114
-0.0505957
-0.0506822
-0.0507705
-0.0508603
-0.0509516
-0.051044
-0.0511374
-0.0512315
-0.0513263
-0.0514214
-0.0515168
-0.0516124
-0.0517079
-0.0518032
-0.0518983
-0.051993
-0.0520872
-0.0521807
-0.0522736
-0.0523658
-0.0524571
-0.0525474
-0.0526368
-0.0527252
-0.0528125
-0.0528986
-0.0529836
-0.0530674
-0.0531499
-0.0532312
-0.0533112
-0.0533899
-0.0534673
-0.0535433
-0.053618
-0.0536913
-0.0537633
-0.053834
-0.0539032
-0.0539711
-0.0540377
-0.0541029
-0.0541667
-0.0542292
-0.0542903
-0.05435
-0.0544085
-0.0544656
-0.0545214
-0.0545759
-0.054629
-0.0546809
-0.0547315
-0.0547808
-0.0548289
-0.0548757
-0.0549212
-0.0549656
-0.0550087
-0.0550506
-0.0550914
-0.0551309
-0.0551693
-0.0552065
-0.0552427
-0.0552776
-0.0553115
-0.0553443
-0.0496697
-0.0496788
-0.0496965
-0.0497219
-0.0497546
-0.0497939
-0.0498393
-0.0498904
-0.0499466
-0.0500075
-0.0500728
-0.050142
-0.0502148
-0.0502908
-0.0503698
-0.0504514
-0.0505353
-0.0506214
-0.0507093
-0.0507987
-0.0508896
-0.0509816
-0.0510746
-0.0511684
-0.0512627
-0.0513575
-0.0514526
-0.0515477
-0.0516429
-0.0517379
-0.0518326
-0.051927
-0.0520208
-0.0521141
-0.0522067
-0.0522985
-0.0523894
-0.0524795
-0.0525686
-0.0526566
-0.0527436
-0.0528294
-0.0529141
-0.0529975
-0.0530797
-0.0531607
-0.0532404
-0.0533188
-0.0533958
-0.0534716
-0.053546
-0.053619
-0.0536907
-0.053761
-0.05383
-0.0538977
-0.0539639
-0.0540289
-0.0540924
-0.0541547
-0.0542156
-0.0542752
-0.0543334
-0.0543903
-0.054446
-0.0545003
-0.0545533
-0.0546051
-0.0546556
-0.0547048
-0.0547528
-0.0547996
-0.0548451
-0.0548894
-0.0549325
-0.0549744
-0.0550152
-0.0550547
-0.0550932
-0.0551304
-0.0551666
-0.0552016
-0.0552356
-0.0552685
-0.0496149
-0.049624
-0.0496415
-0.0496668
-0.0496993
-0.0497384
-0.0497836
-0.0498344
-0.0498903
-0.049951
-0.0500159
-0.0500848
-0.0501572
-0.0502329
-0.0503115
-0.0503927
-0.0504762
-0.0505619
-0.0506494
-0.0507385
-0.0508289
-0.0509206
-0.0510132
-0.0511066
-0.0512005
-0.051295
-0.0513897
-0.0514845
-0.0515793
-0.051674
-0.0517684
-0.0518624
-0.0519559
-0.0520488
-0.0521411
-0.0522326
-0.0523232
-0.052413
-0.0525017
-0.0525895
-0.0526761
-0.0527616
-0.052846
-0.0529291
-0.053011
-0.0530917
-0.053171
-0.0532491
-0.0533258
-0.0534012
-0.0534753
-0.0535481
-0.0536194
-0.0536895
-0.0537582
-0.0538255
-0.0538915
-0.0539562
-0.0540195
-0.0540815
-0.0541421
-0.0542015
-0.0542595
-0.0543162
-0.0543717
-0.0544258
-0.0544787
-0.0545303
-0.0545807
-0.0546298
-0.0546777
-0.0547244
-0.0547699
-0.0548141
-0.0548572
-0.0548991
-0.0549399
-0.0549794
-0.0550179
-0.0550552
-0.0550914
-0.0551265
-0.0551605
-0.0551934
-0.0495614
-0.0495704
-0.0495879
-0.0496131
-0.0496454
-0.0496843
-0.0497293
-0.0497798
-0.0498354
-0.0498958
-0.0499604
-0.0500289
-0.050101
-0.0501763
-0.0502545
-0.0503353
-0.0504185
-0.0505038
-0.0505909
-0.0506796
-0.0507697
-0.0508609
-0.0509531
-0.0510462
-0.0511398
-0.0512338
-0.0513282
-0.0514227
-0.0515171
-0.0516115
-0.0517056
-0.0517992
-0.0518925
-0.0519851
-0.052077
-0.0521682
-0.0522585
-0.052348
-0.0524364
-0.0525238
-0.0526102
-0.0526954
-0.0527794
-0.0528622
-0.0529438
-0.0530241
-0.0531032
-0.0531809
-0.0532573
-0.0533324
-0.0534062
-0.0534786
-0.0535497
-0.0536194
-0.0536878
-0.0537548
-0.0538205
-0.0538848
-0.0539479
-0.0540096
-0.05407
-0.054129
-0.0541868
-0.0542433
-0.0542986
-0.0543525
-0.0544052
-0.0544567
-0.0545069
-0.0545559
-0.0546037
-0.0546503
-0.0546957
-0.0547399
-0.0547829
-0.0548248
-0.0548655
-0.0549051
-0.0549436
-0.0549809
-0.0550171
-0.0550523
-0.0550863
-0.0551193
-0.0495092
-0.0495182
-0.0495356
-0.0495607
-0.0495928
-0.0496315
-0.0496763
-0.0497265
-0.0497819
-0.0498419
-0.0499062
-0.0499744
-0.0500461
-0.050121
-0.0501989
-0.0502794
-0.0503622
-0.0504471
-0.0505338
-0.0506221
-0.0507118
-0.0508027
-0.0508945
-0.0509872
-0.0510805
-0.0511742
-0.0512682
-0.0513623
-0.0514565
-0.0515505
-0.0516442
-0.0517376
-0.0518305
-0.0519228
-0.0520145
-0.0521053
-0.0521954
-0.0522845
-0.0523727
-0.0524598
-0.0525458
-0.0526307
-0.0527144
-0.0527969
-0.0528782
-0.0529582
-0.0530369
-0.0531144
-0.0531904
-0.0532652
-0.0533386
-0.0534107
-0.0534814
-0.0535508
-0.0536189
-0.0536856
-0.0537509
-0.053815
-0.0538777
-0.0539391
-0.0539992
-0.054058
-0.0541156
-0.0541718
-0.0542268
-0.0542805
-0.054333
-0.0543843
-0.0544344
-0.0544832
-0.0545308
-0.0545773
-0.0546226
-0.0546668
-0.0547097
-0.0547516
-0.0547923
-0.0548319
-0.0548703
-0.0549077
-0.0549439
-0.0549791
-0.0550132
-0.0550463
-0.0494584
-0.0494674
-0.0494847
-0.0495096
-0.0495416
-0.0495801
-0.0496246
-0.0496746
-0.0497297
-0.0497894
-0.0498534
-0.0499213
-0.0499927
-0.0500672
-0.0501447
-0.0502248
-0.0503073
-0.0503918
-0.0504781
-0.0505661
-0.0506554
-0.0507459
-0.0508374
-0.0509297
-0.0510226
-0.051116
-0.0512097
-0.0513035
-0.0513973
-0.051491
-0.0515844
-0.0516775
-0.0517701
-0.0518621
-0.0519535
-0.0520441
-0.0521338
-0.0522227
-0.0523105
-0.0523973
-0.0524831
-0.0525677
-0.0526511
-0.0527333
-0.0528143
-0.0528939
-0.0529723
-0.0530494
-0.0531252
-0.0531996
-0.0532727
-0.0533445
-0.0534149
-0.0534839
-0.0535516
-0.053618
-0.053683
-0.0537467
-0.0538091
-0.0538702
-0.05393
-0.0539885
-0.0540458
-0.0541017
-0.0541565
-0.05421
-0.0542622
-0.0543133
-0.0543631
-0.0544118
-0.0544593
-0.0545056
-0.0545508
-0.0545948
-0.0546378
-0.0546795
-0.0547202
-0.0547598
-0.0547982
-0.0548356
-0.0548719
-0.0549071
-0.0549413
-0.0549744
-0.049409
-0.0494179
-0.0494351
-0.0494599