/*--------------------------------*- C++ -*----------------------------------*\
  =========                 |
  \\      /  F ield         | OpenFOAM: The Open Source CFD Toolbox
   \\    /   O peration     | Website:  https://openfoam.org
    \\  /    A nd           | Version:  10
     \\/     M anipulation  |
\*---------------------------------------------------------------------------*/
FoamFile
{
    format      ascii;
    class       volScalarField;
    location    "0";
    object      p_d2;
}
// * * * * * * * * * * * * * * * * * * * * * * * * * * * * * * * * * * * * * //

dimensions      [0 2 -2 0 0 0 0];

internalField   nonuniform List<scalar> 
84253
(
-0.036979
-0.0369864
-0.0370007
-0.0370215
-0.037048
-0.0370799
-0.0371168
-0.0371581
-0.0372035
-0.0372527
-0.0373053
-0.0373609
-0.0374193
-0.0374801
-0.0375432
-0.0376082
-0.0376748
-0.037743
-0.0378125
-0.037883
-0.0379544
-0.0380265
-0.0380992
-0.0381723
-0.0382457
-0.0383192
-0.0383928
-0.0384662
-0.0385395
-0.0386125
-0.038685
-0.0387572
-0.0388287
-0.0388997
-0.0389699
-0.0390394
-0.0391082
-0.039176
-0.039243
-0.039309
-0.0393741
-0.0394382
-0.0395012
-0.0395631
-0.039624
-0.0396838
-0.0397424
-0.0398
-0.0398563
-0.0399115
-0.0399656
-0.0400185
-0.0400702
-0.0401208
-0.0401702
-0.0402185
-0.0402655
-0.0403115
-0.0403563
-0.0404
-0.0404425
-0.040484
-0.0405244
-0.0405637
-0.0406019
-0.040639
-0.0406752
-0.0407103
-0.0407444
-0.0407775
-0.0408097
-0.0408409
-0.0408711
-0.0409005
-0.0409289
-0.0409565
-0.0409832
-0.041009
-0.041034
-0.0410582
-0.0410816
-0.0411042
-0.041126
-0.041147
-0.03699
-0.0369974
-0.0370117
-0.0370324
-0.037059
-0.0370909
-0.0371277
-0.037169
-0.0372145
-0.0372636
-0.0373162
-0.0373718
-0.0374302
-0.037491
-0.037554
-0.037619
-0.0376856
-0.0377538
-0.0378232
-0.0378937
-0.0379651
-0.0380373
-0.0381099
-0.038183
-0.0382564
-0.0383299
-0.0384035
-0.0384769
-0.0385502
-0.0386231
-0.0386957
-0.0387679
-0.0388394
-0.0389104
-0.0389807
-0.0390502
-0.039119
-0.0391869
-0.0392539
-0.03932
-0.0393851
-0.0394492
-0.0395123
-0.0395743
-0.0396353
-0.0396952
-0.0397539
-0.0398115
-0.039868
-0.0399234
-0.0399776
-0.0400306
-0.0400825
-0.0401332
-0.0401828
-0.0402312
-0.0402785
-0.0403246
-0.0403696
-0.0404135
-0.0404562
-0.0404979
-0.0405384
-0.0405779
-0.0406163
-0.0406537
-0.04069
-0.0407252
-0.0407595
-0.0407928
-0.040825
-0.0408564
-0.0408867
-0.0409161
-0.0409446
-0.0409722
-0.040999
-0.0410248
-0.0410498
-0.041074
-0.0410974
-0.04112
-0.0411418
-0.0411629
-0.0369685
-0.0369759
-0.0369903
-0.037011
-0.0370375
-0.0370694
-0.0371062
-0.0371474
-0.0371928
-0.0372419
-0.0372944
-0.03735
-0.0374083
-0.037469
-0.037532
-0.0375969
-0.0376635
-0.0377316
-0.0378009
-0.0378714
-0.0379427
-0.0380147
-0.0380873
-0.0381604
-0.0382336
-0.0383071
-0.0383805
-0.0384539
-0.0385271
-0.0385999
-0.0386724
-0.0387445
-0.038816
-0.0388868
-0.038957
-0.0390265
-0.0390952
-0.039163
-0.0392299
-0.0392959
-0.0393609
-0.0394249
-0.0394879
-0.0395498
-0.0396107
-0.0396704
-0.0397291
-0.0397865
-0.0398429
-0.0398981
-0.0399521
-0.040005
-0.0400566
-0.0401072
-0.0401565
-0.0402047
-0.0402517
-0.0402975
-0.0403422
-0.0403858
-0.0404282
-0.0404695
-0.0405097
-0.0405488
-0.0405868
-0.0406238
-0.0406597
-0.0406946
-0.0407284
-0.0407613
-0.0407932
-0.0408242
-0.0408542
-0.0408833
-0.0409115
-0.0409388
-0.0409653
-0.0409909
-0.0410157
-0.0410398
-0.041063
-0.0410854
-0.0411071
-0.0411281
-0.0369474
-0.0369548
-0.0369692
-0.0369898
-0.0370163
-0.0370482
-0.0370849
-0.0371262
-0.0371715
-0.0372206
-0.037273
-0.0373285
-0.0373868
-0.0374475
-0.0375104
-0.0375752
-0.0376417
-0.0377098
-0.037779
-0.0378494
-0.0379207
-0.0379926
-0.0380652
-0.0381381
-0.0382114
-0.0382847
-0.0383581
-0.0384315
-0.0385046
-0.0385774
-0.0386499
-0.0387219
-0.0387933
-0.0388642
-0.0389344
-0.0390038
-0.0390725
-0.0391403
-0.0392072
-0.0392733
-0.0393383
-0.0394024
-0.0394654
-0.0395274
-0.0395883
-0.0396481
-0.0397069
-0.0397645
-0.039821
-0.0398763
-0.0399305
-0.0399836
-0.0400355
-0.0400863
-0.0401359
-0.0401844
-0.0402317
-0.040278
-0.0403231
-0.0403671
-0.04041
-0.0404518
-0.0404925
-0.0405322
-0.0405708
-0.0406084
-0.040645
-0.0406806
-0.0407151
-0.0407487
-0.0407813
-0.040813
-0.0408437
-0.0408734
-0.0409023
-0.0409303
-0.0409573
-0.0409836
-0.0410089
-0.0410334
-0.0410571
-0.04108
-0.0411021
-0.0411234
-0.0369234
-0.0369308
-0.0369451
-0.0369658
-0.0369922
-0.037024
-0.0370607
-0.0371019
-0.0371472
-0.0371962
-0.0372486
-0.037304
-0.0373622
-0.0374228
-0.0374856
-0.0375504
-0.0376169
-0.0376848
-0.037754
-0.0378243
-0.0378955
-0.0379674
-0.0380398
-0.0381127
-0.0381859
-0.0382592
-0.0383325
-0.0384057
-0.0384788
-0.0385516
-0.038624
-0.0386959
-0.0387673
-0.0388382
-0.0389083
-0.0389777
-0.0390464
-0.0391142
-0.0391811
-0.0392472
-0.0393122
-0.0393763
-0.0394394
-0.0395014
-0.0395624
-0.0396223
-0.039681
-0.0397387
-0.0397953
-0.0398507
-0.039905
-0.0399581
-0.0400101
-0.0400609
-0.0401106
-0.0401591
-0.0402065
-0.0402528
-0.0402979
-0.0403419
-0.0403848
-0.0404266
-0.0404673
-0.0405069
-0.0405454
-0.0405829
-0.0406193
-0.0406546
-0.040689
-0.0407223
-0.0407546
-0.040786
-0.0408164
-0.0408459
-0.0408744
-0.0409021
-0.0409289
-0.0409548
-0.0409799
-0.0410041
-0.0410276
-0.0410502
-0.0410721
-0.0410933
-0.0368912
-0.0368986
-0.0369129
-0.0369335
-0.0369599
-0.0369917
-0.0370283
-0.0370694
-0.0371147
-0.0371636
-0.0372159
-0.0372712
-0.0373293
-0.0373898
-0.0374526
-0.0375172
-0.0375836
-0.0376514
-0.0377206
-0.0377907
-0.0378618
-0.0379336
-0.038006
-0.0380788
-0.0381518
-0.038225
-0.0382983
-0.0383714
-0.0384444
-0.0385171
-0.0385894
-0.0386613
-0.0387327
-0.0388034
-0.0388735
-0.0389429
-0.0390115
-0.0390793
-0.0391463
-0.0392123
-0.0392773
-0.0393414
-0.0394045
-0.0394666
-0.0395276
-0.0395875
-0.0396464
-0.0397041
-0.0397607
-0.0398162
-0.0398706
-0.0399238
-0.0399759
-0.0400268
-0.0400766
-0.0401253
-0.0401728
-0.0402192
-0.0402645
-0.0403086
-0.0403517
-0.0403936
-0.0404345
-0.0404742
-0.0405129
-0.0405506
-0.0405872
-0.0406228
-0.0406574
-0.040691
-0.0407237
-0.0407553
-0.0407861
-0.0408159
-0.0408448
-0.0408728
-0.0408999
-0.0409261
-0.0409515
-0.0409761
-0.0409999
-0.0410229
-0.0410451
-0.0410665
-0.0368576
-0.0368649
-0.0368792
-0.0368998
-0.0369261
-0.0369578
-0.0369944
-0.0370355
-0.0370806
-0.0371294
-0.0371816
-0.0372369
-0.0372949
-0.0373553
-0.0374179
-0.0374825
-0.0375487
-0.0376165
-0.0376855
-0.0377555
-0.0378265
-0.0378982
-0.0379705
-0.0380431
-0.0381161
-0.0381892
-0.0382623
-0.0383354
-0.0384082
-0.0384808
-0.0385531
-0.0386249
-0.0386962
-0.0387669
-0.0388369
-0.0389063
-0.0389748
-0.0390426
-0.0391095
-0.0391755
-0.0392406
-0.0393047
-0.0393678
-0.0394299
-0.0394909
-0.0395509
-0.0396098
-0.0396676
-0.0397242
-0.0397798
-0.0398343
-0.0398876
-0.0399398
-0.0399908
-0.0400407
-0.0400895
-0.0401371
-0.0401837
-0.0402291
-0.0402733
-0.0403165
-0.0403586
-0.0403996
-0.0404395
-0.0404784
-0.0405162
-0.040553
-0.0405887
-0.0406235
-0.0406572
-0.04069
-0.0407218
-0.0407526
-0.0407825
-0.0408115
-0.0408396
-0.0408668
-0.0408931
-0.0409186
-0.0409433
-0.0409671
-0.0409901
-0.0410124
-0.0410339
-0.0368205
-0.0368278
-0.0368421
-0.0368626
-0.0368889
-0.0369205
-0.036957
-0.036998
-0.0370431
-0.0370918
-0.0371439
-0.037199
-0.0372569
-0.0373172
-0.0373798
-0.0374442
-0.0375103
-0.0375779
-0.0376468
-0.0377167
-0.0377876
-0.0378592
-0.0379313
-0.0380038
-0.0380767
-0.0381497
-0.0382227
-0.0382956
-0.0383684
-0.0384408
-0.038513
-0.0385847
-0.0386559
-0.0387265
-0.0387965
-0.0388657
-0.0389343
-0.039002
-0.0390688
-0.0391348
-0.0391999
-0.039264
-0.0393271
-0.0393891
-0.0394502
-0.0395102
-0.0395691
-0.039627
-0.0396837
-0.0397393
-0.0397939
-0.0398473
-0.0398995
-0.0399507
-0.0400007
-0.0400495
-0.0400973
-0.0401439
-0.0401895
-0.0402339
-0.0402772
-0.0403194
-0.0403605
-0.0404006
-0.0404396
-0.0404775
-0.0405144
-0.0405503
-0.0405852
-0.0406191
-0.040652
-0.040684
-0.0407149
-0.040745
-0.0407741
-0.0408024
-0.0408297
-0.0408562
-0.0408819
-0.0409067
-0.0409307
-0.0409538
-0.0409762
-0.0409979
-0.036781
-0.0367883
-0.0368026
-0.036823
-0.0368493
-0.0368808
-0.0369173
-0.0369581
-0.0370031
-0.0370517
-0.0371037
-0.0371588
-0.0372165
-0.0372767
-0.0373391
-0.0374034
-0.0374694
-0.0375369
-0.0376056
-0.0376754
-0.0377461
-0.0378176
-0.0378895
-0.037962
-0.0380347
-0.0381075
-0.0381804
-0.0382532
-0.0383258
-0.0383982
-0.0384702
-0.0385418
-0.0386129
-0.0386834
-0.0387533
-0.0388225
-0.0388909
-0.0389586
-0.0390254
-0.0390913
-0.0391563
-0.0392204
-0.0392835
-0.0393456
-0.0394066
-0.0394667
-0.0395256
-0.0395835
-0.0396403
-0.039696
-0.0397505
-0.039804
-0.0398564
-0.0399076
-0.0399577
-0.0400067
-0.0400546
-0.0401013
-0.0401469
-0.0401915
-0.0402349
-0.0402773
-0.0403186
-0.0403588
-0.0403979
-0.040436
-0.0404731
-0.0405092
-0.0405442
-0.0405782
-0.0406113
-0.0406434
-0.0406746
-0.0407048
-0.0407341
-0.0407625
-0.04079
-0.0408166
-0.0408424
-0.0408673
-0.0408914
-0.0409148
-0.0409373
-0.0409591
-0.0367396
-0.036747
-0.0367611
-0.0367816
-0.0368077
-0.0368392
-0.0368756
-0.0369164
-0.0369612
-0.0370097
-0.0370616
-0.0371165
-0.0371741
-0.0372342
-0.0372965
-0.0373606
-0.0374265
-0.0374938
-0.0375624
-0.0376321
-0.0377026
-0.0377739
-0.0378457
-0.037918
-0.0379906
-0.0380633
-0.038136
-0.0382087
-0.0382812
-0.0383534
-0.0384253
-0.0384967
-0.0385677
-0.0386381
-0.0387079
-0.038777
-0.0388453
-0.0389129
-0.0389796
-0.0390455
-0.0391105
-0.0391745
-0.0392375
-0.0392996
-0.0393607
-0.0394207
-0.0394796
-0.0395375
-0.0395944
-0.0396501
-0.0397047
-0.0397582
-0.0398106
-0.0398619
-0.0399121
-0.0399612
-0.0400092
-0.040056
-0.0401018
-0.0401464
-0.04019
-0.0402325
-0.0402739
-0.0403142
-0.0403535
-0.0403918
-0.040429
-0.0404652
-0.0405004
-0.0405345
-0.0405678
-0.0406
-0.0406313
-0.0406617
-0.0406911
-0.0407196
-0.0407473
-0.0407741
-0.0408
-0.0408251
-0.0408493
-0.0408728
-0.0408955
-0.0409173
-0.0366965
-0.0367038
-0.0367179
-0.0367383
-0.0367644
-0.0367958
-0.0368321
-0.0368728
-0.0369175
-0.0369659
-0.0370177
-0.0370725
-0.0371299
-0.0371899
-0.037252
-0.037316
-0.0373817
-0.0374489
-0.0375173
-0.0375868
-0.0376572
-0.0377283
-0.0378
-0.0378721
-0.0379445
-0.0380171
-0.0380897
-0.0381622
-0.0382345
-0.0383066
-0.0383783
-0.0384496
-0.0385205
-0.0385907
-0.0386604
-0.0387294
-0.0387976
-0.0388651
-0.0389317
-0.0389975
-0.0390624
-0.0391264
-0.0391894
-0.0392514
-0.0393124
-0.0393724
-0.0394314
-0.0394893
-0.0395461
-0.0396018
-0.0396565
-0.0397101
-0.0397625
-0.0398139
-0.0398641
-0.0399133
-0.0399613
-0.0400083
-0.0400542
-0.0400989
-0.0401426
-0.0401852
-0.0402267
-0.0402672
-0.0403066
-0.040345
-0.0403823
-0.0404187
-0.040454
-0.0404884
-0.0405217
-0.0405541
-0.0405856
-0.0406161
-0.0406457
-0.0406743
-0.0407021
-0.0407291
-0.0407551
-0.0407804
-0.0408048
-0.0408284
-0.0408512
-0.0408732
-0.036652
-0.0366593
-0.0366734
-0.0366937
-0.0367198
-0.0367511
-0.0367872
-0.0368278
-0.0368724
-0.0369207
-0.0369724
-0.037027
-0.0370844
-0.0371441
-0.0372061
-0.03727
-0.0373355
-0.0374025
-0.0374708
-0.0375401
-0.0376104
-0.0376813
-0.0377528
-0.0378248
-0.037897
-0.0379694
-0.0380418
-0.0381141
-0.0381863
-0.0382583
-0.0383298
-0.038401
-0.0384717
-0.0385418
-0.0386113
-0.0386801
-0.0387482
-0.0388156
-0.0388821
-0.0389478
-0.0390126
-0.0390765
-0.0391394
-0.0392014
-0.0392623
-0.0393223
-0.0393812
-0.0394391
-0.0394959
-0.0395516
-0.0396063
-0.0396599
-0.0397124
-0.0397638
-0.0398141
-0.0398633
-0.0399115
-0.0399585
-0.0400044
-0.0400493
-0.0400931
-0.0401358
-0.0401774
-0.040218
-0.0402575
-0.0402961
-0.0403335
-0.04037
-0.0404055
-0.0404399
-0.0404735
-0.040506
-0.0405376
-0.0405682
-0.040598
-0.0406268
-0.0406548
-0.0406818
-0.040708
-0.0407334
-0.0407579
-0.0407817
-0.0408046
-0.0408268
-0.0366064
-0.0366137
-0.0366278
-0.036648
-0.036674
-0.0367052
-0.0367413
-0.0367818
-0.0368263
-0.0368744
-0.0369259
-0.0369804
-0.0370376
-0.0370973
-0.0371591
-0.0372228
-0.0372882
-0.037355
-0.0374231
-0.0374923
-0.0375624
-0.0376331
-0.0377045
-0.0377762
-0.0378483
-0.0379205
-0.0379927
-0.0380649
-0.0381369
-0.0382086
-0.03828
-0.038351
-0.0384215
-0.0384915
-0.0385608
-0.0386295
-0.0386975
-0.0387647
-0.0388311
-0.0388967
-0.0389613
-0.0390251
-0.0390879
-0.0391498
-0.0392107
-0.0392706
-0.0393295
-0.0393873
-0.0394441
-0.0394998
-0.0395545
-0.0396081
-0.0396606
-0.039712
-0.0397623
-0.0398116
-0.0398598
-0.0399068
-0.0399529
-0.0399978
-0.0400417
-0.0400845
-0.0401262
-0.0401669
-0.0402065
-0.0402452
-0.0402828
-0.0403194
-0.0403549
-0.0403896
-0.0404232
-0.0404559
-0.0404876
-0.0405184
-0.0405483
-0.0405772
-0.0406053
-0.0406325
-0.0406589
-0.0406844
-0.0407091
-0.040733
-0.040756
-0.0407783
-0.03656
-0.0365673
-0.0365813
-0.0366015
-0.0366274
-0.0366585
-0.0366945
-0.0367349
-0.0367792
-0.0368273
-0.0368786
-0.036933
-0.03699
-0.0370495
-0.0371112
-0.0371747
-0.0372399
-0.0373066
-0.0373745
-0.0374435
-0.0375134
-0.037584
-0.0376552
-0.0377268
-0.0377986
-0.0378706
-0.0379427
-0.0380147
-0.0380865
-0.038158
-0.0382293
-0.0383001
-0.0383704
-0.0384402
-0.0385093
-0.0385778
-0.0386456
-0.0387127
-0.0387789
-0.0388444
-0.0389089
-0.0389725
-0.0390353
-0.039097
-0.0391578
-0.0392176
-0.0392764
-0.0393342
-0.0393909
-0.0394466
-0.0395012
-0.0395548
-0.0396073
-0.0396587
-0.039709
-0.0397583
-0.0398065
-0.0398536
-0.0398997
-0.0399447
-0.0399886
-0.0400315
-0.0400733
-0.0401141
-0.0401538
-0.0401926
-0.0402303
-0.040267
-0.0403027
-0.0403374
-0.0403712
-0.040404
-0.0404358
-0.0404668
-0.0404968
-0.0405259
-0.0405541
-0.0405814
-0.0406079
-0.0406336
-0.0406584
-0.0406824
-0.0407056
-0.040728
-0.036513
-0.0365202
-0.0365342
-0.0365543
-0.0365802
-0.0366112
-0.0366471
-0.0366873
-0.0367316
-0.0367795
-0.0368307
-0.0368849
-0.0369418
-0.0370011
-0.0370626
-0.037126
-0.037191
-0.0372576
-0.0373253
-0.0373941
-0.0374638
-0.0375342
-0.0376052
-0.0376766
-0.0377483
-0.0378201
-0.037892
-0.0379638
-0.0380354
-0.0381067
-0.0381778
-0.0382484
-0.0383185
-0.0383881
-0.038457
-0.0385254
-0.038593
-0.0386599
-0.0387259
-0.0387912
-0.0388556
-0.0389191
-0.0389816
-0.0390433
-0.0391039
-0.0391636
-0.0392223
-0.03928
-0.0393366
-0.0393922
-0.0394468
-0.0395003
-0.0395528
-0.0396042
-0.0396545
-0.0397038
-0.039752
-0.0397991
-0.0398452
-0.0398902
-0.0399342
-0.0399771
-0.040019
-0.0400598
-0.0400997
-0.0401385
-0.0401763
-0.0402131
-0.0402489
-0.0402837
-0.0403176
-0.0403505
-0.0403825
-0.0404135
-0.0404437
-0.0404729
-0.0405012
-0.0405287
-0.0405553
-0.0405811
-0.0406061
-0.0406302
-0.0406535
-0.0406761
-0.0364656
-0.0364728
-0.0364867
-0.0365068
-0.0365326
-0.0365635
-0.0365993
-0.0366394
-0.0366835
-0.0367313
-0.0367824
-0.0368364
-0.0368932
-0.0369524
-0.0370137
-0.0370769
-0.0371418
-0.0372081
-0.0372757
-0.0373443
-0.0374138
-0.037484
-0.0375548
-0.037626
-0.0376975
-0.0377691
-0.0378408
-0.0379124
-0.0379838
-0.0380549
-0.0381258
-0.0381962
-0.0382661
-0.0383354
-0.0384042
-0.0384723
-0.0385398
-0.0386064
-0.0386723
-0.0387374
-0.0388016
-0.0388649
-0.0389273
-0.0389888
-0.0390493
-0.0391089
-0.0391674
-0.039225
-0.0392815
-0.039337
-0.0393915
-0.0394449
-0.0394973
-0.0395486
-0.0395989
-0.0396482
-0.0396964
-0.0397435
-0.0397896
-0.0398346
-0.0398786
-0.0399216
-0.0399635
-0.0400044
-0.0400443
-0.0400831
-0.040121
-0.0401579
-0.0401938
-0.0402287
-0.0402627
-0.0402957
-0.0403278
-0.0403589
-0.0403892
-0.0404185
-0.040447
-0.0404746
-0.0405013
-0.0405272
-0.0405523
-0.0405765
-0.0406
-0.0406227
-0.036418
-0.0364252
-0.0364391
-0.0364591
-0.0364847
-0.0365156
-0.0365513
-0.0365913
-0.0366353
-0.0366829
-0.0367338
-0.0367877
-0.0368443
-0.0369033
-0.0369645
-0.0370275
-0.0370922
-0.0371584
-0.0372258
-0.0372942
-0.0373636
-0.0374336
-0.0375042
-0.0375752
-0.0376465
-0.0377179
-0.0377893
-0.0378607
-0.0379319
-0.0380029
-0.0380735
-0.0381437
-0.0382134
-0.0382825
-0.0383511
-0.038419
-0.0384862
-0.0385526
-0.0386183
-0.0386832
-0.0387472
-0.0388103
-0.0388725
-0.0389338
-0.0389942
-0.0390535
-0.0391119
-0.0391693
-0.0392257
-0.0392811
-0.0393355
-0.0393888
-0.0394411
-0.0394924
-0.0395426
-0.0395918
-0.0396399
-0.039687
-0.039733
-0.0397781
-0.039822
-0.039865
-0.0399069
-0.0399479
-0.0399878
-0.0400267
-0.0400646
-0.0401016
-0.0401375
-0.0401725
-0.0402066
-0.0402397
-0.0402718
-0.0403031
-0.0403334
-0.0403629
-0.0403914
-0.0404191
-0.040446
-0.040472
-0.0404972
-0.0405215
-0.0405451
-0.0405679
-0.0363703
-0.0363775
-0.0363913
-0.0364113
-0.0364369
-0.0364677
-0.0365032
-0.0365431
-0.036587
-0.0366345
-0.0366852
-0.036739
-0.0367954
-0.0368543
-0.0369152
-0.0369781
-0.0370427
-0.0371086
-0.0371759
-0.0372441
-0.0373133
-0.0373831
-0.0374535
-0.0375243
-0.0375954
-0.0376666
-0.0377378
-0.037809
-0.03788
-0.0379508
-0.0380211
-0.0380911
-0.0381606
-0.0382295
-0.0382978
-0.0383655
-0.0384324
-0.0384987
-0.0385641
-0.0386288
-0.0386925
-0.0387555
-0.0388175
-0.0388786
-0.0389387
-0.0389979
-0.0390561
-0.0391133
-0.0391696
-0.0392248
-0.039279
-0.0393322
-0.0393844
-0.0394355
-0.0394856
-0.0395347
-0.0395828
-0.0396298
-0.0396758
-0.0397208
-0.0397647
-0.0398077
-0.0398496
-0.0398905
-0.0399305
-0.0399694
-0.0400073
-0.0400443
-0.0400803
-0.0401154
-0.0401495
-0.0401826
-0.0402149
-0.0402462
-0.0402766
-0.0403062
-0.0403348
-0.0403626
-0.0403896
-0.0404157
-0.0404409
-0.0404654
-0.0404891
-0.040512
-0.0363228
-0.0363299
-0.0363437
-0.0363636
-0.0363892
-0.0364198
-0.0364553
-0.036495
-0.0365388
-0.0365861
-0.0366368
-0.0366904
-0.0367466
-0.0368053
-0.0368661
-0.0369288
-0.0369932
-0.037059
-0.037126
-0.0371941
-0.0372631
-0.0373327
-0.0374029
-0.0374735
-0.0375444
-0.0376154
-0.0376865
-0.0377574
-0.0378282
-0.0378987
-0.0379689
-0.0380386
-0.0381078
-0.0381765
-0.0382446
-0.038312
-0.0383787
-0.0384447
-0.03851
-0.0385743
-0.0386379
-0.0387006
-0.0387624
-0.0388232
-0.0388832
-0.0389421
-0.0390001
-0.0390572
-0.0391132
-0.0391683
-0.0392223
-0.0392753
-0.0393273
-0.0393783
-0.0394283
-0.0394773
-0.0395252
-0.0395722
-0.0396181
-0.039663
-0.0397069
-0.0397498
-0.0397916
-0.0398325
-0.0398724
-0.0399114
-0.0399493
-0.0399863
-0.0400223
-0.0400574
-0.0400916
-0.0401248
-0.0401571
-0.0401884
-0.0402189
-0.0402485
-0.0402773
-0.0403051
-0.0403322
-0.0403584
-0.0403837
-0.0404083
-0.0404321
-0.0404551
-0.0362755
-0.0362826
-0.0362964
-0.0363162
-0.0363417
-0.0363722
-0.0364076
-0.0364472
-0.0364908
-0.036538
-0.0365885
-0.036642
-0.0366981
-0.0367566
-0.0368173
-0.0368798
-0.036944
-0.0370096
-0.0370765
-0.0371444
-0.0372131
-0.0372826
-0.0373526
-0.037423
-0.0374937
-0.0375645
-0.0376353
-0.0377061
-0.0377766
-0.0378469
-0.0379169
-0.0379864
-0.0380554
-0.0381238
-0.0381916
-0.0382588
-0.0383253
-0.038391
-0.038456
-0.0385201
-0.0385834
-0.0386458
-0.0387074
-0.038768
-0.0388277
-0.0388864
-0.0389442
-0.039001
-0.0390568
-0.0391117
-0.0391655
-0.0392183
-0.0392702
-0.039321
-0.0393708
-0.0394196
-0.0394674
-0.0395142
-0.03956
-0.0396048
-0.0396486
-0.0396914
-0.0397332
-0.0397741
-0.0398139
-0.0398528
-0.0398907
-0.0399277
-0.0399637
-0.0399988
-0.040033
-0.0400662
-0.0400985
-0.04013
-0.0401605
-0.0401902
-0.0402189
-0.0402469
-0.040274
-0.0403002
-0.0403257
-0.0403503
-0.0403742
-0.0403973
-0.0362286
-0.0362357
-0.0362494
-0.0362692
-0.0362946
-0.036325
-0.0363602
-0.0363998
-0.0364432
-0.0364903
-0.0365407
-0.036594
-0.0366499
-0.0367083
-0.0367688
-0.0368311
-0.0368952
-0.0369606
-0.0370273
-0.037095
-0.0371636
-0.0372329
-0.0373027
-0.0373729
-0.0374434
-0.037514
-0.0375846
-0.0376551
-0.0377255
-0.0377955
-0.0378652
-0.0379345
-0.0380033
-0.0380715
-0.038139
-0.0382059
-0.0382722
-0.0383376
-0.0384023
-0.0384662
-0.0385292
-0.0385914
-0.0386527
-0.038713
-0.0387724
-0.0388309
-0.0388885
-0.038945
-0.0390006
-0.0390552
-0.0391088
-0.0391614
-0.039213
-0.0392637
-0.0393133
-0.0393619
-0.0394095
-0.0394562
-0.0395018
-0.0395465
-0.0395901
-0.0396328
-0.0396745
-0.0397153
-0.0397551
-0.0397939
-0.0398318
-0.0398687
-0.0399047
-0.0399398
-0.0399739
-0.0400071
-0.0400395
-0.0400709
-0.0401015
-0.0401312
-0.04016
-0.040188
-0.0402151
-0.0402414
-0.0402669
-0.0402916
-0.0403156
-0.0403387
-0.0361822
-0.0361893
-0.036203
-0.0362226
-0.0362479
-0.0362783
-0.0363134
-0.0363528
-0.0363961
-0.0364431
-0.0364933
-0.0365464
-0.0366022
-0.0366604
-0.0367208
-0.036783
-0.0368468
-0.0369121
-0.0369786
-0.0370462
-0.0371146
-0.0371837
-0.0372533
-0.0373233
-0.0373936
-0.037464
-0.0375344
-0.0376047
-0.0376748
-0.0377447
-0.0378141
-0.0378832
-0.0379517
-0.0380196
-0.038087
-0.0381536
-0.0382195
-0.0382847
-0.0383492
-0.0384128
-0.0384755
-0.0385374
-0.0385984
-0.0386585
-0.0387176
-0.0387758
-0.0388331
-0.0388894
-0.0389447
-0.038999
-0.0390524
-0.0391047
-0.0391561
-0.0392065
-0.0392559
-0.0393043
-0.0393517
-0.0393982
-0.0394436
-0.0394881
-0.0395316
-0.0395742
-0.0396158
-0.0396564
-0.0396961
-0.0397348
-0.0397726
-0.0398094
-0.0398454
-0.0398804
-0.0399145
-0.0399477
-0.03998
-0.0400114
-0.040042
-0.0400717
-0.0401005
-0.0401285
-0.0401557
-0.0401821
-0.0402076
-0.0402324
-0.0402564
-0.0402796
-0.0361364
-0.0361434
-0.036157
-0.0361767
-0.0362019
-0.0362321
-0.0362671
-0.0363064
-0.0363496
-0.0363964
-0.0364465
-0.0364995
-0.0365551
-0.0366132
-0.0366733
-0.0367354
-0.0367991
-0.0368642
-0.0369305
-0.0369979
-0.0370661
-0.037135
-0.0372045
-0.0372743
-0.0373444
-0.0374146
-0.0374848
-0.0375549
-0.0376248
-0.0376944
-0.0377636
-0.0378324
-0.0379007
-0.0379684
-0.0380355
-0.0381019
-0.0381675
-0.0382325
-0.0382966
-0.0383599
-0.0384224
-0.038484
-0.0385447
-0.0386045
-0.0386633
-0.0387213
-0.0387782
-0.0388342
-0.0388893
-0.0389433
-0.0389964
-0.0390485
-0.0390996
-0.0391497
-0.0391989
-0.039247
-0.0392942
-0.0393404
-0.0393857
-0.0394299
-0.0394733
-0.0395156
-0.039557
-0.0395975
-0.039637
-0.0396756
-0.0397133
-0.03975
-0.0397859
-0.0398208
-0.0398548
-0.039888
-0.0399203
-0.0399517
-0.0399822
-0.0400119
-0.0400407
-0.0400687
-0.0400959
-0.0401223
-0.0401479
-0.0401727
-0.0401967
-0.0402199
-0.0360912
-0.0360982
-0.0361118
-0.0361313
-0.0361565
-0.0361866
-0.0362215
-0.0362607
-0.0363037
-0.0363504
-0.0364003
-0.0364532
-0.0365087
-0.0365666
-0.0366266
-0.0366884
-0.036752
-0.0368169
-0.0368831
-0.0369503
-0.0370184
-0.0370871
-0.0371564
-0.037226
-0.0372959
-0.0373659
-0.0374359
-0.0375058
-0.0375755
-0.0376449
-0.0377139
-0.0377825
-0.0378505
-0.037918
-0.0379848
-0.0380509
-0.0381163
-0.0381809
-0.0382448
-0.0383078
-0.03837
-0.0384313
-0.0384917
-0.0385512
-0.0386097
-0.0386673
-0.038724
-0.0387797
-0.0388344
-0.0388882
-0.038941
-0.0389928
-0.0390436
-0.0390934
-0.0391423
-0.0391902
-0.0392371
-0.039283
-0.039328
-0.0393721
-0.0394152
-0.0394573
-0.0394985
-0.0395388
-0.0395781
-0.0396166
-0.0396541
-0.0396907
-0.0397264
-0.0397612
-0.0397952
-0.0398282
-0.0398604
-0.0398917
-0.0399222
-0.0399519
-0.0399807
-0.0400087
-0.0400359
-0.0400622
-0.0400878
-0.0401126
-0.0401366
-0.0401599
-0.0360468
-0.0360537
-0.0360673
-0.0360868
-0.0361118
-0.0361419
-0.0361766
-0.0362157
-0.0362586
-0.0363051
-0.0363549
-0.0364076
-0.036463
-0.0365207
-0.0365805
-0.0366423
-0.0367056
-0.0367704
-0.0368365
-0.0369035
-0.0369714
-0.03704
-0.0371091
-0.0371785
-0.0372482
-0.037318
-0.0373878
-0.0374575
-0.037527
-0.0375962
-0.037665
-0.0377333
-0.0378011
-0.0378683
-0.0379349
-0.0380007
-0.0380659
-0.0381302
-0.0381938
-0.0382565
-0.0383184
-0.0383794
-0.0384395
-0.0384987
-0.0385569
-0.0386142
-0.0386706
-0.0387259
-0.0387803
-0.0388338
-0.0388862
-0.0389377
-0.0389882
-0.0390378
-0.0390863
-0.0391339
-0.0391805
-0.0392262
-0.0392709
-0.0393147
-0.0393575
-0.0393994
-0.0394404
-0.0394804
-0.0395195
-0.0395577
-0.0395951
-0.0396315
-0.0396671
-0.0397017
-0.0397355
-0.0397685
-0.0398006
-0.0398318
-0.0398622
-0.0398918
-0.0399206
-0.0399485
-0.0399756
-0.040002
-0.0400276
-0.0400524
-0.0400764
-0.0400997
-0.0360031
-0.03601
-0.0360235
-0.036043
-0.0360679
-0.0360979
-0.0361325
-0.0361714
-0.0362143
-0.0362606
-0.0363103
-0.0363628
-0.036418
-0.0364756
-0.0365353
-0.0365969
-0.0366601
-0.0367248
-0.0367906
-0.0368575
-0.0369252
-0.0369937
-0.0370626
-0.0371319
-0.0372014
-0.037271
-0.0373406
-0.0374101
-0.0374794
-0.0375483
-0.0376169
-0.037685
-0.0377526
-0.0378195
-0.0378859
-0.0379515
-0.0380164
-0.0380804
-0.0381437
-0.0382061
-0.0382677
-0.0383284
-0.0383882
-0.038447
-0.038505
-0.038562
-0.038618
-0.038673
-0.0387271
-0.0387802
-0.0388323
-0.0388835
-0.0389337
-0.0389829
-0.0390311
-0.0390784
-0.0391247
-0.03917
-0.0392144
-0.0392579
-0.0393004
-0.039342
-0.0393827
-0.0394225
-0.0394613
-0.0394993
-0.0395364
-0.0395727
-0.039608
-0.0396425
-0.0396761
-0.0397089
-0.0397409
-0.039772
-0.0398023
-0.0398318
-0.0398604
-0.0398883
-0.0399154
-0.0399417
-0.0399672
-0.039992
-0.040016
-0.0400393
-0.0359603
-0.0359672
-0.0359806
-0.036
-0.0360249
-0.0360547
-0.0360893
-0.0361281
-0.0361708
-0.036217
-0.0362665
-0.0363189
-0.036374
-0.0364314
-0.036491
-0.0365524
-0.0366155
-0.03668
-0.0367457
-0.0368124
-0.03688
-0.0369482
-0.037017
-0.0370861
-0.0371555
-0.0372249
-0.0372943
-0.0373636
-0.0374327
-0.0375015
-0.0375698
-0.0376377
-0.037705
-0.0377717
-0.0378378
-0.0379032
-0.0379678
-0.0380316
-0.0380946
-0.0381567
-0.038218
-0.0382784
-0.0383378
-0.0383964
-0.038454
-0.0385107
-0.0385664
-0.0386211
-0.0386748
-0.0387276
-0.0387794
-0.0388302
-0.03888
-0.0389289
-0.0389767
-0.0390237
-0.0390696
-0.0391146
-0.0391587
-0.0392018
-0.039244
-0.0392853
-0.0393257
-0.0393651
-0.0394037
-0.0394414
-0.0394783
-0.0395142
-0.0395494
-0.0395836
-0.0396171
-0.0396497
-0.0396814
-0.0397124
-0.0397426
-0.0397719
-0.0398005
-0.0398282
-0.0398552
-0.0398815
-0.0399069
-0.0399317
-0.0399556
-0.0399789
-0.0359184
-0.0359252
-0.0359386
-0.0359579
-0.0359827
-0.0360125
-0.0360469
-0.0360856
-0.0361282
-0.0361743
-0.0362236
-0.0362759
-0.0363308
-0.0363881
-0.0364475
-0.0365088
-0.0365717
-0.0366361
-0.0367017
-0.0367682
-0.0368357
-0.0369038
-0.0369724
-0.0370413
-0.0371105
-0.0371798
-0.037249
-0.0373181
-0.037387
-0.0374556
-0.0375237
-0.0375914
-0.0376585
-0.037725
-0.0377908
-0.0378559
-0.0379202
-0.0379838
-0.0380465
-0.0381084
-0.0381694
-0.0382294
-0.0382886
-0.0383468
-0.0384041
-0.0384604
-0.0385158
-0.0385702
-0.0386236
-0.038676
-0.0387275
-0.0387779
-0.0388274
-0.0388759
-0.0389234
-0.0389699
-0.0390155
-0.0390602
-0.0391039
-0.0391466
-0.0391885
-0.0392294
-0.0392694
-0.0393086
-0.0393468
-0.0393842
-0.0394208
-0.0394564
-0.0394913
-0.0395253
-0.0395585
-0.0395908
-0.0396224
-0.0396532
-0.0396831
-0.0397123
-0.0397407
-0.0397684
-0.0397953
-0.0398214
-0.0398468
-0.0398714
-0.0398953
-0.0399185
-0.0358774
-0.0358842
-0.0358976
-0.0359168
-0.0359415
-0.0359712
-0.0360055
-0.0360441
-0.0360865
-0.0361325
-0.0361817
-0.0362338
-0.0362886
-0.0363458
-0.036405
-0.0364662
-0.036529
-0.0365932
-0.0366586
-0.036725
-0.0367923
-0.0368603
-0.0369287
-0.0369975
-0.0370666
-0.0371357
-0.0372048
-0.0372737
-0.0373424
-0.0374107
-0.0374787
-0.0375461
-0.037613
-0.0376792
-0.0377448
-0.0378097
-0.0378738
-0.0379371
-0.0379995
-0.0380611
-0.0381218
-0.0381816
-0.0382405
-0.0382984
-0.0383553
-0.0384113
-0.0384663
-0.0385204
-0.0385735
-0.0386256
-0.0386766
-0.0387267
-0.0387759
-0.038824
-0.0388711
-0.0389173
-0.0389625
-0.0390068
-0.0390501
-0.0390924
-0.0391339
-0.0391744
-0.0392141
-0.0392529
-0.0392908
-0.0393278
-0.039364
-0.0393993
-0.0394338
-0.0394676
-0.0395005
-0.0395326
-0.0395639
-0.0395944
-0.0396241
-0.0396531
-0.0396814
-0.0397089
-0.0397356
-0.0397616
-0.0397869
-0.0398114
-0.0398352
-0.0398584
-0.0358373
-0.0358442
-0.0358575
-0.0358766
-0.0359012
-0.0359308
-0.035965
-0.0360035
-0.0360458
-0.0360916
-0.0361407
-0.0361927
-0.0362474
-0.0363044
-0.0363635
-0.0364245
-0.0364872
-0.0365513
-0.0366165
-0.0366828
-0.03675
-0.0368178
-0.0368861
-0.0369548
-0.0370237
-0.0370926
-0.0371615
-0.0372303
-0.0372988
-0.037367
-0.0374347
-0.0375019
-0.0375686
-0.0376346
-0.0377
-0.0377646
-0.0378284
-0.0378915
-0.0379537
-0.038015
-0.0380754
-0.0381349
-0.0381935
-0.0382511
-0.0383077
-0.0383634
-0.0384181
-0.0384718
-0.0385245
-0.0385763
-0.038627
-0.0386768
-0.0387255
-0.0387733
-0.03882
-0.0388658
-0.0389106
-0.0389545
-0.0389974
-0.0390394
-0.0390804
-0.0391206
-0.0391598
-0.0391982
-0.0392357
-0.0392723
-0.0393081
-0.0393431
-0.0393772
-0.0394106
-0.0394432
-0.0394749
-0.0395059
-0.0395362
-0.0395657
-0.0395944
-0.0396225
-0.0396497
-0.0396763
-0.0397021
-0.0397273
-0.0397517
-0.0397754
-0.0397984
-0.0357983
-0.0358051
-0.0358183
-0.0358374
-0.035862
-0.0358915
-0.0359256
-0.0359639
-0.0360061
-0.0360518
-0.0361007
-0.0361526
-0.0362071
-0.036264
-0.036323
-0.0363839
-0.0364464
-0.0365103
-0.0365755
-0.0366417
-0.0367087
-0.0367764
-0.0368446
-0.0369131
-0.0369818
-0.0370506
-0.0371194
-0.037188
-0.0372563
-0.0373243
-0.0373919
-0.0374589
-0.0375253
-0.0375912
-0.0376563
-0.0377207
-0.0377843
-0.037847
-0.037909
-0.03797
-0.0380302
-0.0380894
-0.0381477
-0.038205
-0.0382614
-0.0383167
-0.0383711
-0.0384245
-0.0384769
-0.0385283
-0.0385787
-0.0386281
-0.0386764
-0.0387238
-0.0387702
-0.0388156
-0.03886
-0.0389035
-0.038946
-0.0389875
-0.0390281
-0.0390678
-0.0391066
-0.0391446
-0.0391816
-0.0392178
-0.0392532
-0.0392878
-0.0393215
-0.0393545
-0.0393867
-0.0394181
-0.0394488
-0.0394787
-0.0395079
-0.0395364
-0.0395641
-0.0395912
-0.0396175
-0.0396431
-0.0396681
-0.0396923
-0.0397159
-0.0397388
-0.0357602
-0.035767
-0.0357802
-0.0357992
-0.0358237
-0.0358531
-0.0358871
-0.0359253
-0.0359674
-0.036013
-0.0360618
-0.0361135
-0.0361679
-0.0362247
-0.0362835
-0.0363443
-0.0364067
-0.0364705
-0.0365355
-0.0366016
-0.0366685
-0.036736
-0.0368041
-0.0368725
-0.0369411
-0.0370097
-0.0370783
-0.0371468
-0.037215
-0.0372828
-0.0373501
-0.037417
-0.0374832
-0.0375488
-0.0376137
-0.0376779
-0.0377413
-0.0378038
-0.0378655
-0.0379263
-0.0379861
-0.0380451
-0.0381031
-0.0381601
-0.0382162
-0.0382713
-0.0383254
-0.0383784
-0.0384305
-0.0384816
-0.0385316
-0.0385806
-0.0386287
-0.0386757
-0.0387217
-0.0387667
-0.0388108
-0.0388538
-0.0388959
-0.038937
-0.0389772
-0.0390164
-0.0390548
-0.0390922
-0.0391288
-0.0391646
-0.0391995
-0.0392336
-0.0392669
-0.0392994
-0.0393312
-0.0393622
-0.0393925
-0.039422
-0.0394509
-0.039479
-0.0395064
-0.0395332
-0.0395592
-0.0395846
-0.0396094
-0.0396334
-0.0396568
-0.0396796
-0.0357232
-0.0357299
-0.0357431
-0.0357621
-0.0357864
-0.0358158
-0.0358497