/*--------------------------------*- C++ -*----------------------------------*\
  =========                 |
  \\      /  F ield         | OpenFOAM: The Open Source CFD Toolbox
   \\    /   O peration     | Website:  https://openfoam.org
    \\  /    A nd           | Version:  10
     \\/     M anipulation  |
\*---------------------------------------------------------------------------*/
FoamFile
{
    format      ascii;
    class       volScalarField;
    location    "0";
    object      p_d3;
}
// * * * * * * * * * * * * * * * * * * * * * * * * * * * * * * * * * * * * * //

dimensions      [0 2 -2 0 0 0 0];

internalField   nonuniform List<scalar> 
84253
(
0.0349075
0.0349132
0.0349244
0.0349404
0.034961
0.0349857
0.0350142
0.0350462
0.0350813
0.0351193
0.0351598
0.0352027
0.0352476
0.0352943
0.0353427
0.0353925
0.0354435
0.0354956
0.0355486
0.0356023
0.0356566
0.0357113
0.0357664
0.0358217
0.035877
0.0359324
0.0359877
0.0360427
0.0360975
0.036152
0.036206
0.0362596
0.0363127
0.0363651
0.036417
0.0364681
0.0365186
0.0365683
0.0366172
0.0366654
0.0367127
0.0367592
0.0368049
0.0368496
0.0368935
0.0369365
0.0369786
0.0370199
0.0370602
0.0370996
0.0371381
0.0371757
0.0372124
0.0372483
0.0372832
0.0373173
0.0373505
0.0373829
0.0374144
0.037445
0.0374749
0.0375039
0.0375321
0.0375595
0.0375862
0.037612
0.0376371
0.0376615
0.0376851
0.037708
0.0377303
0.0377518
0.0377726
0.0377928
0.0378123
0.0378312
0.0378495
0.0378672
0.0378842
0.0379007
0.0379167
0.037932
0.0379469
0.0379612
0.0348968
0.0349026
0.0349137
0.0349298
0.0349503
0.0349751
0.0350036
0.0350355
0.0350706
0.0351086
0.0351491
0.035192
0.0352369
0.0352837
0.0353321
0.0353819
0.0354329
0.035485
0.035538
0.0355917
0.035646
0.0357008
0.0357559
0.0358112
0.0358666
0.035922
0.0359773
0.0360324
0.0360872
0.0361417
0.0361958
0.0362494
0.0363025
0.036355
0.0364069
0.0364581
0.0365086
0.0365584
0.0366074
0.0366556
0.0367029
0.0367495
0.0367952
0.03684
0.0368839
0.036927
0.0369691
0.0370104
0.0370507
0.0370902
0.0371288
0.0371664
0.0372032
0.037239
0.037274
0.0373081
0.0373413
0.0373737
0.0374052
0.0374359
0.0374657
0.0374948
0.037523
0.0375504
0.0375771
0.0376029
0.0376281
0.0376524
0.0376761
0.037699
0.0377213
0.0377428
0.0377637
0.0377839
0.0378035
0.0378225
0.0378408
0.0378585
0.0378756
0.0378922
0.0379082
0.0379236
0.0379385
0.0379528
0.0348895
0.0348953
0.0349064
0.0349224
0.034943
0.0349677
0.0349962
0.0350282
0.0350633
0.0351013
0.0351419
0.0351847
0.0352297
0.0352764
0.0353249
0.0353747
0.0354258
0.0354779
0.0355309
0.0355847
0.035639
0.0356938
0.035749
0.0358043
0.0358598
0.0359152
0.0359706
0.0360258
0.0360807
0.0361353
0.0361894
0.0362431
0.0362963
0.0363489
0.0364009
0.0364522
0.0365029
0.0365527
0.0366018
0.0366502
0.0366977
0.0367443
0.0367902
0.0368351
0.0368792
0.0369224
0.0369647
0.0370061
0.0370466
0.0370862
0.0371249
0.0371627
0.0371996
0.0372356
0.0372708
0.037305
0.0373384
0.037371
0.0374027
0.0374335
0.0374636
0.0374928
0.0375212
0.0375488
0.0375757
0.0376018
0.0376271
0.0376517
0.0376755
0.0376986
0.0377211
0.0377428
0.0377638
0.0377842
0.0378039
0.037823
0.0378415
0.0378593
0.0378765
0.0378932
0.0379093
0.0379248
0.0379397
0.0379541
0.0348815
0.0348873
0.0348984
0.0349144
0.034935
0.0349597
0.0349882
0.0350202
0.0350553
0.0350933
0.0351338
0.0351767
0.0352217
0.0352684
0.0353169
0.0353667
0.0354178
0.03547
0.035523
0.0355768
0.0356312
0.035686
0.0357412
0.0357966
0.0358521
0.0359076
0.035963
0.0360183
0.0360733
0.0361279
0.0361822
0.036236
0.0362892
0.0363419
0.036394
0.0364454
0.0364961
0.0365461
0.0365953
0.0366437
0.0366913
0.0367381
0.036784
0.036829
0.0368732
0.0369165
0.0369588
0.0370003
0.0370409
0.0370805
0.0371193
0.0371572
0.0371941
0.0372302
0.0372654
0.0372997
0.0373331
0.0373656
0.0373973
0.0374281
0.0374581
0.0374873
0.0375157
0.0375432
0.03757
0.037596
0.0376212
0.0376457
0.0376694
0.0376924
0.0377147
0.0377363
0.0377572
0.0377774
0.037797
0.0378159
0.0378342
0.0378519
0.037869
0.0378856
0.0379015
0.0379169
0.0379318
0.0379462
0.0348666
0.0348724
0.0348836
0.0348996
0.0349202
0.0349449
0.0349734
0.0350054
0.0350405
0.0350785
0.035119
0.0351619
0.0352069
0.0352537
0.0353021
0.035352
0.0354031
0.0354553
0.0355083
0.0355622
0.0356166
0.0356715
0.0357267
0.0357822
0.0358378
0.0358934
0.0359489
0.0360042
0.0360593
0.0361141
0.0361684
0.0362223
0.0362757
0.0363285
0.0363807
0.0364323
0.0364831
0.0365332
0.0365826
0.0366311
0.0366789
0.0367258
0.0367718
0.036817
0.0368613
0.0369047
0.0369472
0.0369888
0.0370295
0.0370693
0.0371082
0.0371462
0.0371833
0.0372195
0.0372547
0.0372892
0.0373227
0.0373553
0.0373871
0.0374181
0.0374482
0.0374775
0.037506
0.0375336
0.0375605
0.0375866
0.0376119
0.0376365
0.0376604
0.0376835
0.0377059
0.0377277
0.0377487
0.0377691
0.0377888
0.0378079
0.0378264
0.0378442
0.0378615
0.0378781
0.0378942
0.0379098
0.0379248
0.0379392
0.03485
0.0348558
0.034867
0.034883
0.0349036
0.0349283
0.0349568
0.0349888
0.0350239
0.0350619
0.0351024
0.0351453
0.0351903
0.0352371
0.0352855
0.0353354
0.0353866
0.0354388
0.0354919
0.0355458
0.0356003
0.0356552
0.0357105
0.0357661
0.0358217
0.0358774
0.035933
0.0359885
0.0360437
0.0360985
0.036153
0.0362071
0.0362606
0.0363136
0.0363659
0.0364176
0.0364686
0.0365189
0.0365684
0.0366171
0.036665
0.0367121
0.0367583
0.0368037
0.0368482
0.0368918
0.0369344
0.0369762
0.0370171
0.0370571
0.0370961
0.0371343
0.0371715
0.0372079
0.0372433
0.0372779
0.0373115
0.0373443
0.0373763
0.0374074
0.0374376
0.037467
0.0374956
0.0375234
0.0375504
0.0375766
0.037602
0.0376267
0.0376506
0.0376739
0.0376964
0.0377182
0.0377393
0.0377597
0.0377795
0.0377986
0.0378171
0.037835
0.0378523
0.037869
0.0378851
0.0379007
0.0379157
0.0379302
0.0348308
0.0348366
0.0348477
0.0348637
0.0348843
0.034909
0.0349375
0.0349695
0.0350046
0.0350426
0.0350831
0.035126
0.035171
0.0352178
0.0352663
0.0353162
0.0353673
0.0354196
0.0354728
0.0355267
0.0355812
0.0356362
0.0356916
0.0357472
0.035803
0.0358588
0.0359145
0.03597
0.0360253
0.0360804
0.036135
0.0361892
0.0362428
0.036296
0.0363485
0.0364004
0.0364515
0.036502
0.0365517
0.0366006
0.0366487
0.0366959
0.0367424
0.0367879
0.0368326
0.0368763
0.0369192
0.0369612
0.0370022
0.0370424
0.0370816
0.0371199
0.0371573
0.0371938
0.0372295
0.0372642
0.037298
0.0373309
0.037363
0.0373942
0.0374246
0.0374542
0.0374829
0.0375108
0.0375379
0.0375642
0.0375897
0.0376145
0.0376386
0.0376619
0.0376845
0.0377064
0.0377276
0.0377481
0.037768
0.0377872
0.0378058
0.0378238
0.0378411
0.0378579
0.0378741
0.0378898
0.0379049
0.0379194
0.0348086
0.0348144
0.0348255
0.0348416
0.0348621
0.0348868
0.0349153
0.0349473
0.0349824
0.0350204
0.0350609
0.0351038
0.0351488
0.0351956
0.0352441
0.035294
0.0353452
0.0353975
0.0354507
0.0355047
0.0355593
0.0356144
0.0356698
0.0357255
0.0357814
0.0358372
0.0358931
0.0359487
0.0360042
0.0360593
0.0361141
0.0361684
0.0362223
0.0362756
0.0363283
0.0363803
0.0364317
0.0364824
0.0365323
0.0365814
0.0366297
0.0366772
0.0367238
0.0367696
0.0368144
0.0368584
0.0369015
0.0369437
0.036985
0.0370253
0.0370648
0.0371033
0.0371409
0.0371776
0.0372134
0.0372483
0.0372824
0.0373155
0.0373478
0.0373792
0.0374097
0.0374394
0.0374683
0.0374964
0.0375237
0.0375501
0.0375758
0.0376008
0.037625
0.0376484
0.0376711
0.0376932
0.0377145
0.0377352
0.0377551
0.0377745
0.0377932
0.0378113
0.0378288
0.0378456
0.0378619
0.0378777
0.0378929
0.0379075
0.0347845
0.0347903
0.0348014
0.0348175
0.034838
0.0348627
0.0348912
0.0349232
0.0349583
0.0349962
0.0350368
0.0350797
0.0351246
0.0351715
0.03522
0.0352699
0.0353211
0.0353734
0.0354267
0.0354807
0.0355353
0.0355905
0.035646
0.0357018
0.0357577
0.0358137
0.0358697
0.0359255
0.035981
0.0360363
0.0360913
0.0361458
0.0361998
0.0362533
0.0363062
0.0363584
0.03641
0.0364609
0.036511
0.0365604
0.0366089
0.0366566
0.0367035
0.0367495
0.0367946
0.0368388
0.0368822
0.0369246
0.0369661
0.0370067
0.0370464
0.0370851
0.037123
0.0371599
0.0371959
0.0372311
0.0372653
0.0372986
0.0373311
0.0373627
0.0373934
0.0374233
0.0374524
0.0374807
0.0375081
0.0375347
0.0375606
0.0375857
0.03761
0.0376336
0.0376565
0.0376786
0.0377001
0.0377209
0.037741
0.0377605
0.0377793
0.0377975
0.0378151
0.037832
0.0378485
0.0378643
0.0378796
0.0378943
0.0347586
0.0347644
0.0347755
0.0347915
0.0348121
0.0348368
0.0348652
0.0348972
0.0349323
0.0349702
0.0350108
0.0350537
0.0350986
0.0351455
0.035194
0.0352439
0.0352952
0.0353475
0.0354008
0.0354548
0.0355095
0.0355647
0.0356203
0.0356762
0.0357322
0.0357883
0.0358444
0.0359003
0.035956
0.0360115
0.0360666
0.0361212
0.0361754
0.0362291
0.0362822
0.0363347
0.0363865
0.0364376
0.0364879
0.0365375
0.0365863
0.0366343
0.0366814
0.0367276
0.036773
0.0368175
0.0368611
0.0369038
0.0369455
0.0369864
0.0370263
0.0370653
0.0371034
0.0371406
0.0371769
0.0372122
0.0372467
0.0372803
0.037313
0.0373448
0.0373757
0.0374058
0.0374351
0.0374635
0.0374912
0.037518
0.037544
0.0375693
0.0375938
0.0376176
0.0376406
0.0376629
0.0376845
0.0377055
0.0377257
0.0377453
0.0377643
0.0377826
0.0378003
0.0378174
0.0378339
0.0378499
0.0378653
0.0378801
0.0347311
0.0347368
0.034748
0.034764
0.0347845
0.0348092
0.0348377
0.0348696
0.0349047
0.0349426
0.0349832
0.035026
0.035071
0.0351178
0.0351663
0.0352163
0.0352676
0.0353199
0.0353732
0.0354273
0.035482
0.0355373
0.035593
0.0356489
0.035705
0.0357612
0.0358174
0.0358734
0.0359293
0.0359849
0.0360401
0.036095
0.0361494
0.0362032
0.0362565
0.0363092
0.0363613
0.0364126
0.0364632
0.036513
0.0365621
0.0366103
0.0366577
0.0367042
0.0367499
0.0367946
0.0368385
0.0368815
0.0369235
0.0369646
0.0370048
0.0370441
0.0370825
0.0371199
0.0371565
0.0371921
0.0372268
0.0372606
0.0372936
0.0373256
0.0373568
0.0373872
0.0374166
0.0374453
0.0374731
0.0375002
0.0375264
0.0375519
0.0375766
0.0376005
0.0376237
0.0376462
0.037668
0.0376891
0.0377095
0.0377292
0.0377483
0.0377668
0.0377846
0.0378018
0.0378185
0.0378345
0.03785
0.037865
0.0347022
0.034708
0.0347191
0.0347351
0.0347557
0.0347803
0.0348088
0.0348407
0.0348758
0.0349137
0.0349542
0.0349971
0.035042
0.0350889
0.0351374
0.0351873
0.0352386
0.035291
0.0353443
0.0353984
0.0354532
0.0355085
0.0355642
0.0356202
0.0356764
0.0357327
0.035789
0.0358451
0.0359011
0.0359569
0.0360123
0.0360673
0.0361219
0.036176
0.0362295
0.0362824
0.0363346
0.0363862
0.0364371
0.0364872
0.0365365
0.036585
0.0366326
0.0366795
0.0367254
0.0367705
0.0368146
0.0368579
0.0369002
0.0369417
0.0369822
0.0370217
0.0370604
0.0370981
0.0371349
0.0371708
0.0372058
0.0372399
0.0372731
0.0373054
0.0373369
0.0373675
0.0373972
0.0374261
0.0374541
0.0374814
0.0375078
0.0375335
0.0375584
0.0375825
0.0376059
0.0376286
0.0376506
0.0376718
0.0376924
0.0377123
0.0377315
0.0377501
0.0377681
0.0377855
0.0378022
0.0378184
0.0378341
0.0378491
0.0346723
0.0346781
0.0346892
0.0347052
0.0347257
0.0347504
0.0347788
0.0348107
0.0348457
0.0348837
0.0349242
0.034967
0.035012
0.0350588
0.0351073
0.0351572
0.0352085
0.0352609
0.0353142
0.0353683
0.0354232
0.0354785
0.0355343
0.0355904
0.0356466
0.035703
0.0357594
0.0358157
0.0358718
0.0359277
0.0359832
0.0360384
0.0360932
0.0361474
0.0362012
0.0362543
0.0363068
0.0363586
0.0364097
0.0364601
0.0365097
0.0365585
0.0366064
0.0366535
0.0366998
0.0367451
0.0367896
0.0368332
0.0368758
0.0369176
0.0369584
0.0369983
0.0370372
0.0370753
0.0371124
0.0371486
0.0371839
0.0372183
0.0372517
0.0372843
0.037316
0.0373469
0.0373769
0.037406
0.0374343
0.0374618
0.0374885
0.0375144
0.0375395
0.0375638
0.0375874
0.0376103
0.0376324
0.0376538
0.0376746
0.0376947
0.0377141
0.0377328
0.0377509
0.0377685
0.0377854
0.0378017
0.0378174
0.0378326
0.0346415
0.0346473
0.0346584
0.0346744
0.0346949
0.0347195
0.0347479
0.0347798
0.0348148
0.0348527
0.0348932
0.034936
0.034981
0.0350278
0.0350762
0.0351262
0.0351775
0.0352298
0.0352832
0.0353373
0.0353922
0.0354476
0.0355034
0.0355595
0.0356158
0.0356723
0.0357287
0.0357851
0.0358414
0.0358974
0.0359531
0.0360085
0.0360634
0.0361178
0.0361718
0.0362251
0.0362779
0.0363299
0.0363813
0.0364319
0.0364818
0.0365309
0.0365791
0.0366265
0.0366731
0.0367188
0.0367636
0.0368075
0.0368505
0.0368925
0.0369337
0.0369739
0.0370132
0.0370515
0.037089
0.0371255
0.0371611
0.0371958
0.0372295
0.0372624
0.0372944
0.0373256
0.0373558
0.0373852
0.0374138
0.0374415
0.0374684
0.0374946
0.0375199
0.0375445
0.0375683
0.0375913
0.0376137
0.0376353
0.0376562
0.0376765
0.0376961
0.037715
0.0377333
0.0377509
0.037768
0.0377845
0.0378003
0.0378156
0.03461
0.0346158
0.0346268
0.0346428
0.0346633
0.0346879
0.0347163
0.0347482
0.0347832
0.0348211
0.0348615
0.0349044
0.0349493
0.034996
0.0350445
0.0350944
0.0351457
0.035198
0.0352514
0.0353055
0.0353604
0.0354158
0.0354716
0.0355278
0.0355842
0.0356407
0.0356973
0.0357537
0.0358101
0.0358662
0.0359221
0.0359776
0.0360327
0.0360873
0.0361415
0.036195
0.036248
0.0363003
0.0363519
0.0364028
0.036453
0.0365024
0.0365509
0.0365987
0.0366455
0.0366915
0.0367367
0.0367809
0.0368242
0.0368666
0.0369081
0.0369487
0.0369883
0.037027
0.0370648
0.0371016
0.0371376
0.0371726
0.0372067
0.0372399
0.0372722
0.0373036
0.0373341
0.0373638
0.0373927
0.0374207
0.0374479
0.0374742
0.0374998
0.0375246
0.0375486
0.0375719
0.0375945
0.0376163
0.0376374
0.0376579
0.0376776
0.0376967
0.0377152
0.037733
0.0377502
0.0377668
0.0377828
0.0377983
0.034578
0.0345837
0.0345948
0.0346108
0.0346313
0.0346559
0.0346842
0.0347161
0.0347511
0.0347889
0.0348293
0.0348721
0.034917
0.0349637
0.0350122
0.0350621
0.0351133
0.0351657
0.035219
0.0352732
0.035328
0.0353834
0.0354393
0.0354955
0.0355519
0.0356085
0.0356651
0.0357217
0.0357781
0.0358344
0.0358904
0.035946
0.0360013
0.0360561
0.0361104
0.0361642
0.0362174
0.0362699
0.0363218
0.036373
0.0364234
0.0364731
0.0365219
0.03657
0.0366172
0.0366635
0.036709
0.0367536
0.0367973
0.03684
0.0368819
0.0369228
0.0369628
0.0370018
0.03704
0.0370771
0.0371134
0.0371488
0.0371832
0.0372167
0.0372494
0.0372811
0.037312
0.0373419
0.0373711
0.0373994
0.0374268
0.0374535
0.0374793
0.0375043
0.0375286
0.0375521
0.0375749
0.0375969
0.0376183
0.0376389
0.0376589
0.0376781
0.0376968
0.0377148
0.0377321
0.0377489
0.0377651
0.0377806
0.0345456
0.0345513
0.0345624
0.0345783
0.0345988
0.0346234
0.0346518
0.0346836
0.0347185
0.0347563
0.0347968
0.0348395
0.0348843
0.0349311
0.0349795
0.0350293
0.0350805
0.0351329
0.0351862
0.0352403
0.0352952
0.0353506
0.0354065
0.0354627
0.0355192
0.0355758
0.0356324
0.0356891
0.0357456
0.0358019
0.035858
0.0359138
0.0359692
0.0360242
0.0360787
0.0361327
0.0361861
0.0362389
0.036291
0.0363424
0.0363931
0.0364431
0.0364923
0.0365406
0.0365882
0.0366348
0.0366807
0.0367256
0.0367696
0.0368128
0.036855
0.0368963
0.0369366
0.0369761
0.0370146
0.0370521
0.0370888
0.0371245
0.0371593
0.0371931
0.0372261
0.0372582
0.0372894
0.0373197
0.0373491
0.0373777
0.0374054
0.0374323
0.0374585
0.0374838
0.0375083
0.037532
0.0375551
0.0375773
0.0375989
0.0376197
0.0376398
0.0376593
0.0376781
0.0376963
0.0377138
0.0377308
0.0377471
0.0377628
0.0345129
0.0345187
0.0345297
0.0345457
0.0345661
0.0345907
0.034619
0.0346508
0.0346858
0.0347235
0.0347639
0.0348066
0.0348514
0.0348981
0.0349465
0.0349963
0.0350475
0.0350998
0.0351531
0.0352072
0.035262
0.0353174
0.0353733
0.0354295
0.035486
0.0355427
0.0355994
0.0356561
0.0357126
0.0357691
0.0358253
0.0358812
0.0359367
0.0359918
0.0360465
0.0361007
0.0361543
0.0362073
0.0362596
0.0363113
0.0363623
0.0364126
0.036462
0.0365107
0.0365586
0.0366056
0.0366518
0.0366971
0.0367415
0.036785
0.0368276
0.0368692
0.03691
0.0369498
0.0369887
0.0370266
0.0370637
0.0370997
0.0371349
0.0371691
0.0372025
0.0372349
0.0372664
0.0372971
0.0373268
0.0373557
0.0373838
0.037411
0.0374374
0.037463
0.0374878
0.0375118
0.037535
0.0375575
0.0375793
0.0376004
0.0376207
0.0376404
0.0376594
0.0376778
0.0376955
0.0377126
0.0377291
0.037745
0.0344802
0.0344859
0.034497
0.0345129
0.0345333
0.0345579
0.0345862
0.034618
0.0346529
0.0346906
0.034731
0.0347736
0.0348184
0.034865
0.0349134
0.0349632
0.0350143
0.0350665
0.0351198
0.0351739
0.0352287
0.0352841
0.0353399
0.0353962
0.0354527
0.0355093
0.035566
0.0356228
0.0356794
0.0357359
0.0357922
0.0358482
0.0359038
0.0359591
0.0360139
0.0360683
0.036122
0.0361753
0.0362278
0.0362798
0.036331
0.0363815
0.0364313
0.0364803
0.0365285
0.0365759
0.0366224
0.036668
0.0367128
0.0367567
0.0367997
0.0368418
0.0368829
0.0369231
0.0369624
0.0370008
0.0370382
0.0370747
0.0371102
0.0371448
0.0371786
0.0372113
0.0372432
0.0372742
0.0373043
0.0373336
0.037362
0.0373895
0.0374162
0.0374421
0.0374671
0.0374914
0.0375149
0.0375377
0.0375597
0.037581
0.0376016
0.0376214
0.0376407
0.0376592
0.0376771
0.0376944
0.037711
0.0377271
0.0344474
0.0344532
0.0344642
0.0344801
0.0345006
0.0345251
0.0345534
0.0345851
0.03462
0.0346577
0.034698
0.0347406
0.0347854
0.034832
0.0348802
0.03493
0.0349811
0.0350333
0.0350865
0.0351405
0.0351953
0.0352507
0.0353065
0.0353627
0.0354192
0.0354758
0.0355326
0.0355893
0.035646
0.0357026
0.0357589
0.035815
0.0358707
0.0359261
0.0359811
0.0360356
0.0360895
0.0361429
0.0361957
0.0362479
0.0362994
0.0363502
0.0364002
0.0364495
0.036498
0.0365457
0.0365926
0.0366386
0.0366838
0.0367281
0.0367714
0.0368139
0.0368555
0.0368961
0.0369358
0.0369746
0.0370124
0.0370493
0.0370853
0.0371203
0.0371544
0.0371876
0.0372198
0.0372512
0.0372817
0.0373113
0.03734
0.0373679
0.0373949
0.0374211
0.0374465
0.037471
0.0374948
0.0375178
0.0375401
0.0375616
0.0375825
0.0376026
0.037622
0.0376407
0.0376588
0.0376763
0.0376931
0.0377093
0.0344148
0.0344205
0.0344316
0.0344475
0.0344679
0.0344924
0.0345207
0.0345524
0.0345872
0.0346249
0.0346652
0.0347077
0.0347524
0.034799
0.0348472
0.0348969
0.0349479
0.0350001
0.0350532
0.0351072
0.0351619
0.0352173
0.0352731
0.0353292
0.0353857
0.0354423
0.0354991
0.0355558
0.0356125
0.0356691
0.0357255
0.0357816
0.0358375
0.035893
0.035948
0.0360026
0.0360568
0.0361103
0.0361633
0.0362157
0.0362674
0.0363185
0.0363688
0.0364184
0.0364672
0.0365153
0.0365625
0.0366089
0.0366544
0.0366991
0.0367428
0.0367857
0.0368277
0.0368688
0.0369089
0.0369481
0.0369864
0.0370237
0.0370601
0.0370955
0.0371301
0.0371637
0.0371963
0.0372281
0.037259
0.0372889
0.037318
0.0373462
0.0373736
0.0374001
0.0374258
0.0374507
0.0374748
0.0374981
0.0375206
0.0375424
0.0375634
0.0375838
0.0376034
0.0376224
0.0376407
0.0376583
0.0376753
0.0376917
0.0343824
0.0343881
0.0343991
0.034415
0.0344354
0.0344599
0.0344881
0.0345198
0.0345546
0.0345923
0.0346325
0.034675
0.0347197
0.0347662
0.0348143
0.034864
0.0349149
0.034967
0.0350201
0.0350741
0.0351287
0.035184
0.0352397
0.0352959
0.0353523
0.0354089
0.0354656
0.0355224
0.0355791
0.0356357
0.0356921
0.0357483
0.0358042
0.0358597
0.0359149
0.0359696
0.0360239
0.0360776
0.0361308
0.0361833
0.0362353
0.0362866
0.0363372
0.036387
0.0364362
0.0364845
0.0365321
0.0365788
0.0366247
0.0366698
0.036714
0.0367573
0.0367997
0.0368412
0.0368817
0.0369214
0.0369601
0.0369979
0.0370347
0.0370706
0.0371056
0.0371396
0.0371727
0.0372049
0.0372362
0.0372665
0.037296
0.0373246
0.0373523
0.0373792
0.0374052
0.0374305
0.0374548
0.0374784
0.0375013
0.0375233
0.0375446
0.0375652
0.0375851
0.0376043
0.0376228
0.0376406
0.0376578
0.0376744
0.0343502
0.0343559
0.0343669
0.0343828
0.0344032
0.0344277
0.0344559
0.0344875
0.0345223
0.0345599
0.0346001
0.0346426
0.0346872
0.0347336
0.0347817
0.0348313
0.0348822
0.0349342
0.0349873
0.0350411
0.0350957
0.0351509
0.0352066
0.0352627
0.0353191
0.0353757
0.0354324
0.0354891
0.0355458
0.0356024
0.0356588
0.035715
0.0357709
0.0358266
0.0358818
0.0359366
0.035991
0.0360448
0.0360981
0.0361509
0.036203
0.0362545
0.0363053
0.0363555
0.0364049
0.0364536
0.0365014
0.0365485
0.0365948
0.0366403
0.0366848
0.0367286
0.0367714
0.0368133
0.0368544
0.0368945
0.0369336
0.0369719
0.0370092
0.0370456
0.037081
0.0371155
0.0371491
0.0371817
0.0372134
0.0372442
0.0372741
0.0373031
0.0373312
0.0373584
0.0373848
0.0374104
0.0374351
0.037459
0.0374821
0.0375045
0.0375261
0.0375469
0.037567
0.0375864
0.0376052
0.0376232
0.0376406
0.0376574
0.0343184
0.0343241
0.0343351
0.034351
0.0343714
0.0343958
0.034424
0.0344556
0.0344904
0.0345279
0.0345681
0.0346105
0.034655
0.0347014
0.0347495
0.034799
0.0348498
0.0349018
0.0349547
0.0350085
0.0350631
0.0351182
0.0351738
0.0352298
0.0352862
0.0353427
0.0353993
0.035456
0.0355127
0.0355692
0.0356257
0.0356819
0.0357378
0.0357935
0.0358488
0.0359036
0.0359581
0.0360121
0.0360655
0.0361184
0.0361707
0.0362224
0.0362734
0.0363238
0.0363735
0.0364224
0.0364706
0.0365181
0.0365647
0.0366105
0.0366555
0.0366997
0.0367429
0.0367853
0.0368268
0.0368674
0.036907
0.0369457
0.0369835
0.0370204
0.0370563
0.0370913
0.0371253
0.0371584
0.0371906
0.0372219
0.0372522
0.0372816
0.0373102
0.0373378
0.0373646
0.0373905
0.0374156
0.0374399
0.0374633
0.037486
0.0375078
0.037529
0.0375493
0.037569
0.037588
0.0376062
0.0376239
0.0376408
0.034287
0.0342927
0.0343037
0.0343196
0.0343399
0.0343644
0.0343925
0.0344241
0.0344588
0.0344964
0.0345364
0.0345788
0.0346233
0.0346696
0.0347176
0.0347671
0.0348178
0.0348697
0.0349226
0.0349763
0.0350308
0.0350858
0.0351414
0.0351973
0.0352536
0.03531
0.0353666
0.0354232
0.0354798
0.0355364
0.0355928
0.035649
0.0357049
0.0357606
0.0358159
0.0358708
0.0359253
0.0359794
0.0360329
0.0360859
0.0361384
0.0361903
0.0362415
0.0362921
0.036342
0.0363912
0.0364397
0.0364875
0.0365345
0.0365806
0.036626
0.0366706
0.0367143
0.0367571
0.036799
0.0368401
0.0368802
0.0369195
0.0369578
0.0369951
0.0370316
0.0370671
0.0371016
0.0371352
0.0371679
0.0371996
0.0372304
0.0372603
0.0372893
0.0373174
0.0373446
0.0373709
0.0373964
0.037421
0.0374448
0.0374678
0.03749
0.0375114
0.0375321
0.037552
0.0375712
0.0375897
0.0376075
0.0376247
0.0342561
0.0342618
0.0342728
0.0342886
0.034309
0.0343334
0.0343615
0.0343931
0.0344278
0.0344653
0.0345053
0.0345476
0.0345921
0.0346383
0.0346862
0.0347356
0.0347863
0.0348381
0.0348909
0.0349445
0.0349989
0.0350539
0.0351093
0.0351652
0.0352214
0.0352777
0.0353342
0.0353908
0.0354473
0.0355038
0.0355602
0.0356164
0.0356723
0.0357279
0.0357833
0.0358382
0.0358928
0.0359469
0.0360005
0.0360536
0.0361062
0.0361582
0.0362096
0.0362604
0.0363105
0.03636
0.0364087
0.0364568
0.0365041
0.0365506
0.0365964
0.0366413
0.0366854
0.0367287
0.0367711
0.0368127
0.0368533
0.0368931
0.0369319
0.0369698
0.0370067
0.0370428
0.0370779
0.037112
0.0371452
0.0371774
0.0372088
0.0372391
0.0372686
0.0372972
0.0373248
0.0373516
0.0373775
0.0374025
0.0374267
0.03745
0.0374725
0.0374943
0.0375153
0.0375355
0.0375549
0.0375737
0.0375918
0.0376092
0.0342257
0.0342314
0.0342424
0.0342582
0.0342785
0.0343029
0.034331
0.0343626
0.0343972
0.0344347
0.0344747
0.034517
0.0345613
0.0346075
0.0346554
0.0347047
0.0347553
0.034807
0.0348597
0.0349133
0.0349675
0.0350224
0.0350778
0.0351336
0.0351896
0.0352459
0.0353023
0.0353588
0.0354153
0.0354717
0.035528
0.0355841
0.03564
0.0356956
0.0357509
0.0358059
0.0358604
0.0359146
0.0359682
0.0360214
0.0360741
0.0361262
0.0361777
0.0362287
0.036279
0.0363287
0.0363777
0.036426
0.0364736
0.0365205
0.0365666
0.0366119
0.0366565
0.0367002
0.0367431
0.0367851
0.0368262
0.0368665
0.0369059
0.0369443
0.0369818
0.0370184
0.0370541
0.0370888
0.0371225
0.0371553
0.0371872
0.0372181
0.0372481
0.0372772
0.0373053
0.0373325
0.0373589
0.0373843
0.0374089
0.0374326
0.0374556
0.0374777
0.037499
0.0375195
0.0375393
0.0375583
0.0375766
0.0375942
0.0341958
0.0342015
0.0342125
0.0342283
0.0342486
0.034273
0.0343011
0.0343326
0.0343672
0.0344047
0.0344446
0.0344868
0.0345311
0.0345773
0.0346251
0.0346743
0.0347248
0.0347765
0.0348291
0.0348825
0.0349367
0.0349915
0.0350468
0.0351024
0.0351584
0.0352146
0.0352709
0.0353273
0.0353837
0.03544
0.0354962
0.0355523
0.0356081
0.0356637
0.0357189
0.0357739
0.0358284
0.0358826
0.0359362
0.0359895
0.0360422
0.0360944
0.036146
0.0361971
0.0362476
0.0362975
0.0363467
0.0363952
0.0364431
0.0364903
0.0365367
0.0365824
0.0366274
0.0366715
0.0367148
0.0367573
0.036799
0.0368398
0.0368797
0.0369187
0.0369568
0.036994
0.0370302
0.0370655
0.0370999
0.0371333
0.0371657
0.0371972
0.0372278
0.0372574
0.0372861
0.0373138
0.0373406
0.0373666
0.0373916
0.0374158
0.0374391
0.0374616
0.0374833
0.0375041
0.0375242
0.0375436
0.0375622
0.03758
0.0341665
0.0341723
0.0341832
0.0341991
0.0342194
0.0342437
0.0342718
0.0343033
0.0343379
0.0343752
0.0344151
0.0344573
0.0345016
0.0345477
0.0345954
0.0346445
0.0346949
0.0347465
0.034799
0.0348524
0.0349065
0.0349612
0.0350163
0.0350719
0.0351277
0.0351838
0.03524
0.0352963
0.0353526
0.0354088
0.035465
0.0355209
0.0355767
0.0356322
0.0356874
0.0357423
0.0357968
0.0358509
0.0359046
0.0359578
0.0360106
0.0360628
0.0361145
0.0361657
0.0362163
0.0362663
0.0363157
0.0363645
0.0364126
0.03646
0.0365068
0.0365528
0.0365981
0.0366427
0.0366864
0.0367294
0.0367716
0.0368129
0.0368533
0.0368929
0.0369316
0.0369694
0.0370063
0.0370422
0.0370772
0.0371112
0.0371443
0.0371764
0.0372076
0.0372378
0.0372671
0.0372954
0.0373228
0.0373492
0.0373748
0.0373994
0.0374232
0.0374461
0.0374682
0.0374894
0.0375099
0.0375295
0.0375484
0.0375666
0.0341379
0.0341436
0.0341546
0.0341704
0.0341907
0.034215
0.0342431
0.0342746
0.0343091
0.0343465
0.0343863
0.0344285
0.0344727
0.0345187
0.0345663
0.0346154
0.0346657
0.0347172
0.0347696
0.0348229
0.0348769
0.0349314
0.0349865
0.0350419
0.0350977
0.0351536
0.0352097
0.0352659
0.0353221
0.0353782
0.0354342
0.0354901
0.0355458
0.0356012
0.0356563
0.0357111
0.0357656
0.0358196
0.0358733
0.0359265
0.0359792
0.0360315
0.0360833
0.0361345
0.0361852
0.0362353
0.0362848
0.0363338
0.0363821
0.0364298
0.0364768
0.0365231
0.0365688
0.0366137
0.0366579
0.0367013
0.036744
0.0367858
0.0368268
0.036867
0.0369063
0.0369447
0.0369822
0.0370188
0.0370544
0.0370891
0.0371229
0.0371557
0.0371875
0.0372184
0.0372483
0.0372772
0.0373052
0.0373323
0.0373584
0.0373836
0.0374078
0.0374312
0.0374538
0.0374754
0.0374963
0.0375163
0.0375355
0.037554
0.0341099
0.0341157
0.0341266
0.0341424
0.0341627
0.034187
0.0342151
0.0342465
0.034281
0.0343183
0.0343582
0.0344003
0.0344444
0.0344903
0.0345379
0.0345869
0.0346372
0.0346885
0.0347409
0.034794
0.0348479
0.0349024
0.0349573
0.0350126
0.0350682
0.0351241
0.0351801
0.0352361
0.0352922
0.0353482
0.0354041
0.0354598
0.0355154
0.0355707
0.0356257
0.0356804
0.0357348
0.0357888
0.0358424
0.0358956
0.0359483
0.0360005
0.0360523
0.0361035
0.0361543
0.0362045
0.0362541
0.0363032
0.0363517
0.0363995
0.0364468
0.0364934
0.0365393
0.0365846
0.0366292
0.036673
0.0367161
0.0367585
0.0368
0.0368408
0.0368807
0.0369197
0.0369579
0.0369952
0.0370315
0.037067
0.0371014
0.037135
0.0371675
0.0371991
0.0372297
0.0372593
0.037288
0.0373157
0.0373424
0.0373682
0.037393
0.037417
0.03744
0.0374621
0.0374834
0.0375039
0.0375235
0.0375423
0.0340826
0.0340884
0.0340993
0.0341151
0.0341354
0.0341597
0.0341877
0.0342191
0.0342536
0.0342909
0.0343307
0.0343727
0.0344168
0.0344627
0.0345102
0.0345591
0.0346093
0.0346606
0.0347128
0.0347659
0.0348196
0.034874
0.0349288
0.034984
0.0350395
0.0350952
0.035151
0.035207
0.0352629
0.0353188
0.0353745
0.0354302
0.0354856
0.0355408
0.0355957
0.0356503
0.0357046
0.0357585
0.035812
0.0358651
0.0359177
0.0359699
0.0360217
0.0360729
0.0361236
0.0361739
0.0362236
0.0362727
0.0363213
0.0363693
0.0364168
0.0364636
0.0365098
0.0365554
0.0366003
0.0366446
0.0366881
0.0367309
0.036773
0.0368143
0.0368548
0.0368945
0.0369334
0.0369713
0.0370084
0.0370446
0.0370798
0.0371141
0.0371475
0.0371798
0.0372112
0.0372416
0.037271
0.0372994
0.0373268
0.0373533
0.0373788
0.0374033
0.0374269
0.0374496
0.0374714
0.0374923
0.0375124
0.0375316
0.034056
0.0340617
0.0340727
0.0340885
0.0341087
0.0341331
0.0341611
0.0341925
0.0342269
0.0342642
0.0343039
0.0343459
0.0343899
0.0344357
0.0344832
0.034532
0.0345821
0.0346333
0.0346854
0.0347384
0.0347921
0.0348463
0.034901
0.0349561
0.0350114
0.035067
0.0351227
0.0351785
0.0352343
0.03529
0.0353456
0.0354011
0.0354564
0.0355115
0.0355663
0.0356207
0.0356749
0.0357287
0.0357821
0.0358351
0.0358876
0.0359398
0.0359914
0.0360426
0.0360933
0.0361435
0.0361933
0.0362424
0.0362911
0.0363392
0.0363868
0.0364338
0.0364802
0.0365261
0.0365713
0.0366159
0.0366598
0.0367031
0.0367457
0.0367875
0.0368286
0.036869
0.0369085
0.0369472
0.0369851
0.037022
0.0370581
0.0370932
0.0371273
0.0371605
0.0371927
0.037224
0.0372542
0.0372834
0.0373116
0.0373388
0.037365
0.0373903
0.0374145
0.0374378
0.0374602
0.0374817
0.0375022
0.0375219
0.0340301
0.0340358
0.0340468
0.0340626
0.0340828
0.0341071
0.0341351
0.0341665
0.0342009
0.0342381
0.0342778
0.0343198
0.0343638
0.0344095
0.0344569
0.0345057
0.0345557
0.0346068
0.0346588
0.0347117
0.0347652
0.0348193
0.0348739
0.0349288
0.0349841
0.0350395
0.0350951
0.0351507
0.0352063
0.0352619
0.0353174
0.0353728
0.0354279
0.0354828
0.0355375
0.0355918
0.0356458
0.0356995
0.0357527
0.0358056
0.035858
0.0359101
0.0359616
0.0360127
0.0360634
0.0361135
0.0361632
0.0362124
0.0362611
0.0363093
0.0363569
0.036404
0.0364506
0.0364967
0.0365421
0.036587
0.0366313
0.036675
0.036718
0.0367604
0.0368021
0.036843
0.0368833
0.0369227
0.0369613
0.036999
0.0370359
0.0370719
0.037107
0.0371411
0.0371742
0.0372063
0.0372375
0.0372676
0.0372967
0.0373247
0.0373518
0.0373778
0.0374028
0.0374268
0.0374499
0.037472
0.0374931
0.0375133
0.0340049
0.0340106
0.0340216
0.0340374
0.0340576
0.0340819
0.0341099
0.0341412
0.0341757
0.0342128
0.0342525
0.0342944
0.0343383
0.034384
0.0344313
0.03448
0.03453
0.034581
0.0346329
0.0346856
0.0347391
0.0347931
0.0348475
0.0349023
0.0349574
0.0350127
0.0350681
0.0351236
0.0351791
0.0352346
0.0352899
0.0353451
0.0354001
0.0354548
0.0355093
0.0355635
0.0356173
0.0356708
0.035724
0.0357767
0.035829
0.0358809
0.0359323
0.0359833
0.0360338
0.0360839
0.0361335
0.0361827
0.0362313
0.0362795
0.0363271
0.0363743
0.036421
0.0364672
0.0365129
0.036558
0.0366026
0.0366466
0.0366901
0.0367329
0.0367751
0.0368167
0.0368575
0.0368977
0.036937
0.0369756
0.0370134
0.0370503
0.0370863
0.0371214
0.0371555
0.0371886
0.0372207
0.0372518
0.0372819
0.0373109
0.0373388
0.0373658
0.0373916
0.0374165
0.0374403
0.0374631
0.0374849
0.0375058
0.0339805
0.0339862
0.0339971
0.0340129
0.0340331
0.0340574
0.0340854
0.0341167
0.0341511
0.0341883
0.0342279
0.0342698
0.0343136
0.0343593
0.0344065
0.0344551
0.034505
0.0345559
0.0346077
0.0346604
0.0347137
0.0347676
0.0348219
0.0348766