/*--------------------------------*- C++ -*----------------------------------*\
  =========                 |
  \\      /  F ield         | OpenFOAM: The Open Source CFD Toolbox
   \\    /   O peration     | Website:  https://openfoam.org
    \\  /    A nd           | Version:  10
     \\/     M anipulation  |
\*---------------------------------------------------------------------------*/
FoamFile
{
    format      ascii;
    class       volScalarField;
    location    "0";
    object      p_d4;
}
// * * * * * * * * * * * * * * * * * * * * * * * * * * * * * * * * * * * * * //

dimensions      [0 2 -2 0 0 0 0];

internalField   nonuniform List<scalar> 
84253
(
0.0407612
0.0407693
0.0407849
0.0408074
0.0408362
0.0408708
0.0409108
0.0409556
0.0410049
0.0410583
0.0411153
0.0411756
0.041239
0.041305
0.0413733
0.0414438
0.0415161
0.04159
0.0416652
0.0417415
0.0418188
0.0418968
0.0419754
0.0420544
0.0421336
0.042213
0.0422922
0.0423713
0.0424501
0.0425286
0.0426065
0.0426838
0.0427605
0.0428364
0.0429115
0.0429857
0.043059
0.0431312
0.0432024
0.0432726
0.0433416
0.0434094
0.0434761
0.0435416
0.0436058
0.0436688
0.0437305
0.043791
0.0438502
0.0439081
0.0439648
0.0440201
0.0440742
0.044127
0.0441785
0.0442288
0.0442779
0.0443256
0.0443722
0.0444175
0.0444617
0.0445046
0.0445464
0.044587
0.0446265
0.0446648
0.0447021
0.0447382
0.0447733
0.0448073
0.0448403
0.0448723
0.0449033
0.0449333
0.0449623
0.0449904
0.0450176
0.0450439
0.0450693
0.0450938
0.0451175
0.0451404
0.0451625
0.0451838
0.0407468
0.0407549
0.0407705
0.040793
0.0408218
0.0408564
0.0408963
0.0409412
0.0409905
0.0410438
0.0411008
0.0411611
0.0412244
0.0412904
0.0413588
0.0414292
0.0415015
0.0415753
0.0416506
0.0417269
0.0418042
0.0418822
0.0419608
0.0420398
0.042119
0.0421983
0.0422776
0.0423567
0.0424356
0.042514
0.042592
0.0426693
0.042746
0.0428219
0.0428971
0.0429713
0.0430446
0.0431169
0.0431882
0.0432583
0.0433274
0.0433953
0.043462
0.0435275
0.0435918
0.0436548
0.0437166
0.0437771
0.0438363
0.0438943
0.043951
0.0440063
0.0440604
0.0441133
0.0441648
0.0442151
0.0442642
0.0443119
0.0443585
0.0444038
0.044448
0.0444909
0.0445327
0.0445733
0.0446127
0.0446511
0.0446883
0.0447245
0.0447595
0.0447936
0.0448266
0.0448586
0.0448896
0.0449196
0.0449487
0.0449768
0.0450041
0.0450304
0.0450559
0.0450805
0.0451043
0.0451272
0.0451494
0.0451707
0.0407379
0.0407459
0.0407615
0.0407839
0.0408127
0.0408473
0.0408872
0.0409321
0.0409813
0.0410346
0.0410916
0.0411519
0.0412152
0.0412811
0.0413495
0.0414199
0.0414921
0.041566
0.0416412
0.0417175
0.0417948
0.0418729
0.0419515
0.0420305
0.0421097
0.0421891
0.0422684
0.0423476
0.0424265
0.042505
0.042583
0.0426604
0.0427372
0.0428132
0.0428885
0.0429628
0.0430362
0.0431086
0.04318
0.0432503
0.0433195
0.0433875
0.0434544
0.04352
0.0435845
0.0436477
0.0437096
0.0437703
0.0438297
0.0438878
0.0439447
0.0440002
0.0440545
0.0441076
0.0441593
0.0442098
0.0442591
0.0443071
0.0443539
0.0443995
0.0444438
0.044487
0.044529
0.0445699
0.0446096
0.0446482
0.0446857
0.0447222
0.0447575
0.0447918
0.0448251
0.0448573
0.0448886
0.0449188
0.0449481
0.0449765
0.0450039
0.0450305
0.0450561
0.0450809
0.0451048
0.0451279
0.0451501
0.0451716
0.0407249
0.040733
0.0407485
0.0407709
0.0407997
0.0408342
0.0408741
0.0409189
0.0409681
0.0410213
0.0410783
0.0411385
0.0412017
0.0412676
0.0413359
0.0414063
0.0414785
0.0415523
0.0416275
0.0417038
0.0417811
0.0418591
0.0419377
0.0420167
0.042096
0.0421753
0.0422547
0.0423339
0.0424128
0.0424914
0.0425694
0.0426469
0.0427238
0.0427999
0.0428752
0.0429496
0.0430231
0.0430956
0.0431671
0.0432375
0.0433068
0.0433749
0.0434419
0.0435076
0.0435722
0.0436355
0.0436975
0.0437583
0.0438178
0.043876
0.0439329
0.0439886
0.044043
0.0440961
0.0441479
0.0441984
0.0442477
0.0442958
0.0443426
0.0443882
0.0444325
0.0444757
0.0445177
0.0445585
0.0445982
0.0446367
0.0446741
0.0447104
0.0447456
0.0447798
0.0448129
0.044845
0.0448761
0.0449061
0.0449353
0.0449635
0.0449907
0.0450171
0.0450426
0.0450672
0.045091
0.045114
0.0451362
0.0451576
0.0407043
0.0407123
0.0407279
0.0407502
0.040779
0.0408135
0.0408533
0.040898
0.0409471
0.0410003
0.0410572
0.0411174
0.0411805
0.0412464
0.0413146
0.0413849
0.0414571
0.0415308
0.041606
0.0416823
0.0417595
0.0418375
0.0419161
0.0419951
0.0420744
0.0421538
0.0422332
0.0423124
0.0423914
0.04247
0.0425481
0.0426257
0.0427026
0.0427788
0.0428543
0.0429288
0.0430024
0.0430751
0.0431467
0.0432172
0.0432867
0.0433549
0.0434221
0.043488
0.0435527
0.0436161
0.0436784
0.0437393
0.043799
0.0438574
0.0439145
0.0439703
0.0440248
0.0440781
0.0441301
0.0441808
0.0442303
0.0442785
0.0443254
0.0443712
0.0444157
0.044459
0.0445012
0.0445422
0.044582
0.0446207
0.0446583
0.0446948
0.0447302
0.0447646
0.0447979
0.0448302
0.0448615
0.0448918
0.0449212
0.0449496
0.0449771
0.0450037
0.0450294
0.0450543
0.0450783
0.0451014
0.0451238
0.0451454
0.0406813
0.0406893
0.0407048
0.0407272
0.0407558
0.0407903
0.0408301
0.0408747
0.0409238
0.0409769
0.0410337
0.0410938
0.0411568
0.0412226
0.0412908
0.041361
0.0414331
0.0415068
0.0415819
0.0416581
0.0417353
0.0418133
0.0418919
0.0419709
0.0420502
0.0421296
0.042209
0.0422883
0.0423673
0.042446
0.0425242
0.0426019
0.042679
0.0427553
0.0428308
0.0429055
0.0429793
0.043052
0.0431238
0.0431945
0.0432642
0.0433326
0.0433999
0.043466
0.0435309
0.0435946
0.043657
0.0437182
0.043778
0.0438366
0.043894
0.04395
0.0440047
0.0440582
0.0441104
0.0441613
0.044211
0.0442594
0.0443065
0.0443525
0.0443972
0.0444407
0.044483
0.0445242
0.0445642
0.044603
0.0446408
0.0446774
0.044713
0.0447475
0.0447809
0.0448133
0.0448447
0.0448752
0.0449046
0.0449331
0.0449607
0.0449874
0.0450132
0.0450381
0.0450621
0.0450854
0.0451078
0.0451295
0.040654
0.040662
0.0406775
0.0406998
0.0407284
0.0407628
0.0408025
0.040847
0.040896
0.040949
0.0410057
0.0410657
0.0411287
0.0411944
0.0412624
0.0413326
0.0414046
0.0414782
0.0415533
0.0416294
0.0417066
0.0417846
0.0418631
0.0419421
0.0420214
0.0421008
0.0421803
0.0422596
0.0423387
0.0424174
0.0424957
0.0425735
0.0426507
0.0427271
0.0428028
0.0428776
0.0429515
0.0430245
0.0430964
0.0431673
0.0432371
0.0433058
0.0433733
0.0434397
0.0435048
0.0435687
0.0436313
0.0436927
0.0437528
0.0438116
0.0438691
0.0439254
0.0439804
0.0440341
0.0440865
0.0441376
0.0441875
0.0442361
0.0442835
0.0443296
0.0443745
0.0444183
0.0444608
0.0445021
0.0445423
0.0445814
0.0446193
0.0446561
0.0446918
0.0447265
0.0447601
0.0447927
0.0448242
0.0448548
0.0448844
0.0449131
0.0449408
0.0449677
0.0449936
0.0450187
0.0450429
0.0450663
0.0450888
0.0451106
0.0406231
0.0406311
0.0406465
0.0406687
0.0406973
0.0407316
0.0407712
0.0408157
0.0408645
0.0409175
0.040974
0.0410339
0.0410968
0.0411624
0.0412303
0.0413004
0.0413723
0.0414459
0.0415208
0.0415969
0.041674
0.0417519
0.0418305
0.0419094
0.0419887
0.0420682
0.0421476
0.042227
0.0423061
0.042385
0.0424634
0.0425412
0.0426185
0.0426951
0.0427709
0.0428459
0.04292
0.0429931
0.0430653
0.0431364
0.0432064
0.0432753
0.043343
0.0434096
0.043475
0.0435391
0.043602
0.0436636
0.043724
0.0437831
0.0438409
0.0438974
0.0439527
0.0440066
0.0440593
0.0441107
0.0441608
0.0442097
0.0442573
0.0443037
0.0443489
0.0443929
0.0444357
0.0444772
0.0445177
0.044557
0.0445951
0.0446322
0.0446681
0.044703
0.0447368
0.0447696
0.0448014
0.0448322
0.044862
0.0448908
0.0449188
0.0449458
0.0449719
0.0449971
0.0450215
0.045045
0.0450677
0.0450897
0.0405894
0.0405974
0.0406127
0.0406349
0.0406634
0.0406976
0.0407372
0.0407815
0.0408303
0.0408831
0.0409396
0.0409993
0.0410621
0.0411275
0.0411954
0.0412653
0.0413371
0.0414106
0.0414854
0.0415615
0.0416385
0.0417163
0.0417948
0.0418738
0.041953
0.0420325
0.042112
0.0421914
0.0422706
0.0423494
0.0424279
0.0425059
0.0425833
0.04266
0.0427359
0.0428111
0.0428854
0.0429587
0.0430311
0.0431024
0.0431726
0.0432418
0.0433098
0.0433766
0.0434422
0.0435066
0.0435698
0.0436317
0.0436924
0.0437518
0.0438099
0.0438667
0.0439222
0.0439765
0.0440294
0.0440811
0.0441316
0.0441807
0.0442286
0.0442753
0.0443208
0.044365
0.044408
0.0444499
0.0444906
0.0445301
0.0445685
0.0446058
0.044642
0.0446771
0.0447112
0.0447442
0.0447762
0.0448072
0.0448372
0.0448662
0.0448943
0.0449215
0.0449478
0.0449732
0.0449978
0.0450215
0.0450443
0.0450664
0.0405531
0.0405611
0.0405764
0.0405986
0.040627
0.0406611
0.0407005
0.0407448
0.0407934
0.0408461
0.0409024
0.0409621
0.0410247
0.04109
0.0411577
0.0412275
0.0412992
0.0413725
0.0414473
0.0415232
0.0416002
0.0416779
0.0417564
0.0418353
0.0419145
0.0419939
0.0420734
0.0421528
0.0422321
0.042311
0.0423896
0.0424676
0.0425451
0.042622
0.0426981
0.0427734
0.0428479
0.0429214
0.042994
0.0430655
0.043136
0.0432054
0.0432737
0.0433408
0.0434067
0.0434714
0.0435348
0.0435971
0.043658
0.0437177
0.0437761
0.0438333
0.0438891
0.0439437
0.043997
0.044049
0.0440997
0.0441492
0.0441974
0.0442444
0.0442901
0.0443347
0.044378
0.0444202
0.0444611
0.0445009
0.0445396
0.0445772
0.0446136
0.044649
0.0446833
0.0447166
0.0447488
0.04478
0.0448103
0.0448395
0.0448679
0.0448953
0.0449218
0.0449474
0.0449721
0.044996
0.0450191
0.0450413
0.0405147
0.0405227
0.0405379
0.04056
0.0405883
0.0406224
0.0406617
0.0407058
0.0407543
0.0408069
0.040863
0.0409225
0.040985
0.0410502
0.0411177
0.0411874
0.041259
0.0413322
0.0414068
0.0414826
0.0415595
0.0416372
0.0417155
0.0417944
0.0418735
0.0419529
0.0420324
0.0421119
0.0421911
0.0422701
0.0423487
0.0424269
0.0425045
0.0425815
0.0426577
0.0427332
0.0428078
0.0428816
0.0429544
0.0430262
0.0430969
0.0431665
0.0432351
0.0433025
0.0433687
0.0434337
0.0434974
0.04356
0.0436213
0.0436813
0.04374
0.0437975
0.0438537
0.0439086
0.0439622
0.0440146
0.0440656
0.0441155
0.044164
0.0442113
0.0442574
0.0443023
0.0443459
0.0443884
0.0444296
0.0444698
0.0445087
0.0445466
0.0445833
0.044619
0.0446535
0.044687
0.0447195
0.044751
0.0447815
0.044811
0.0448396
0.0448672
0.0448939
0.0449197
0.0449447
0.0449688
0.044992
0.0450145
0.0404745
0.0404824
0.0404977
0.0405197
0.0405479
0.0405818
0.040621
0.040665
0.0407134
0.0407658
0.0408218
0.0408812
0.0409435
0.0410085
0.0410759
0.0411454
0.0412168
0.0412899
0.0413644
0.0414401
0.0415168
0.0415944
0.0416726
0.0417514
0.0418305
0.0419099
0.0419893
0.0420688
0.0421481
0.0422271
0.0423058
0.042384
0.0424617
0.0425388
0.0426152
0.0426908
0.0427656
0.0428396
0.0429126
0.0429846
0.0430556
0.0431255
0.0431943
0.043262
0.0433285
0.0433938
0.0434579
0.0435208
0.0435824
0.0436428
0.0437019
0.0437597
0.0438162
0.0438715
0.0439255
0.0439782
0.0440296
0.0440798
0.0441287
0.0441764
0.0442228
0.044268
0.044312
0.0443547
0.0443963
0.0444368
0.0444761
0.0445142
0.0445513
0.0445872
0.0446221
0.0446559
0.0446886
0.0447204
0.0447511
0.0447809
0.0448097
0.0448376
0.0448645
0.0448906
0.0449157
0.04494
0.0449635
0.0449861
0.0404329
0.0404407
0.0404559
0.0404779
0.040506
0.0405398
0.0405789
0.0406227
0.040671
0.0407232
0.0407791
0.0408383
0.0409004
0.0409652
0.0410325
0.0411018
0.0411731
0.0412459
0.0413203
0.0413958
0.0414724
0.0415499
0.041628
0.0417067
0.0417858
0.0418651
0.0419445
0.0420239
0.0421032
0.0421822
0.0422609
0.0423392
0.042417
0.0424942
0.0425707
0.0426465
0.0427215
0.0427956
0.0428689
0.0429411
0.0430123
0.0430825
0.0431516
0.0432196
0.0432864
0.043352
0.0434165
0.0434797
0.0435417
0.0436024
0.0436618
0.04372
0.043777
0.0438326
0.0438869
0.04394
0.0439918
0.0440424
0.0440917
0.0441397
0.0441865
0.044232
0.0442764
0.0443195
0.0443614
0.0444022
0.0444418
0.0444803
0.0445177
0.0445539
0.0445891
0.0446232
0.0446562
0.0446883
0.0447193
0.0447493
0.0447784
0.0448065
0.0448337
0.04486
0.0448854
0.0449099
0.0449336
0.0449564
0.0403901
0.0403978
0.040413
0.0404348
0.0404629
0.0404966
0.0405355
0.0405792
0.0406273
0.0406794
0.0407351
0.0407941
0.0408561
0.0409207
0.0409877
0.0410569
0.041128
0.0412007
0.0412749
0.0413503
0.0414267
0.041504
0.0415821
0.0416606
0.0417396
0.0418188
0.0418982
0.0419775
0.0420568
0.0421358
0.0422146
0.0422929
0.0423708
0.042448
0.0425247
0.0426006
0.0426757
0.04275
0.0428235
0.0428959
0.0429674
0.0430379
0.0431072
0.0431755
0.0432426
0.0433086
0.0433734
0.0434369
0.0434993
0.0435604
0.0436202
0.0436788
0.0437361
0.0437921
0.0438468
0.0439003
0.0439525
0.0440034
0.0440531
0.0441015
0.0441487
0.0441946
0.0442393
0.0442828
0.0443251
0.0443663
0.0444062
0.044445
0.0444827
0.0445193
0.0445548
0.0445892
0.0446226
0.0446549
0.0446862
0.0447165
0.0447458
0.0447742
0.0448017
0.0448282
0.0448538
0.0448786
0.0449025
0.0449255
0.0403463
0.040354
0.0403691
0.0403909
0.0404188
0.0404524
0.0404912
0.0405348
0.0405827
0.0406346
0.0406901
0.0407489
0.0408107
0.0408752
0.040942
0.041011
0.0410819
0.0411544
0.0412284
0.0413036
0.0413799
0.0414571
0.0415349
0.0416134
0.0416922
0.0417713
0.0418506
0.0419299
0.0420091
0.0420882
0.0421669
0.0422453
0.0423232
0.0424005
0.0424772
0.0425533
0.0426286
0.042703
0.0427766
0.0428493
0.042921
0.0429917
0.0430614
0.04313
0.0431974
0.0432637
0.0433288
0.0433927
0.0434554
0.0435169
0.0435771
0.0436361
0.0436938
0.0437502
0.0438053
0.0438592
0.0439118
0.0439631
0.0440132
0.044062
0.0441096
0.0441559
0.044201
0.0442449
0.0442876
0.0443291
0.0443694
0.0444086
0.0444466
0.0444835
0.0445193
0.0445541
0.0445877
0.0446204
0.044652
0.0446826
0.0447122
0.0447408
0.0447686
0.0447953
0.0448212
0.0448462
0.0448704
0.0448937
0.0403019
0.0403094
0.0403245
0.0403462
0.0403741
0.0404076
0.0404462
0.0404896
0.0405374
0.0405891
0.0406444
0.0407031
0.0407646
0.0408289
0.0408955
0.0409643
0.041035
0.0411073
0.0411811
0.0412561
0.0413322
0.0414092
0.0414869
0.0415652
0.0416439
0.0417229
0.0418021
0.0418813
0.0419605
0.0420395
0.0421182
0.0421966
0.0422745
0.0423519
0.0424287
0.0425048
0.0425802
0.0426549
0.0427286
0.0428015
0.0428734
0.0429444
0.0430143
0.0430831
0.0431509
0.0432175
0.043283
0.0433472
0.0434103
0.0434721
0.0435327
0.0435921
0.0436502
0.043707
0.0437626
0.0438169
0.0438699
0.0439217
0.0439722
0.0440214
0.0440694
0.0441161
0.0441616
0.0442059
0.044249
0.0442908
0.0443315
0.0443711
0.0444095
0.0444467
0.0444829
0.044518
0.044552
0.0445849
0.0446168
0.0446477
0.0446777
0.0447066
0.0447346
0.0447616
0.0447878
0.044813
0.0448374
0.0448609
0.0402571
0.0402644
0.0402795
0.0403011
0.0403289
0.0403622
0.0404007
0.040444
0.0404916
0.0405431
0.0405983
0.0406567
0.040718
0.0407821
0.0408485
0.040917
0.0409875
0.0410596
0.0411332
0.041208
0.0412839
0.0413607
0.0414383
0.0415164
0.041595
0.0416738
0.0417529
0.041832
0.0419111
0.04199
0.0420687
0.042147
0.0422249
0.0423023
0.0423792
0.0424554
0.0425309
0.0426057
0.0426796
0.0427527
0.0428248
0.042896
0.0429661
0.0430353
0.0431033
0.0431702
0.043236
0.0433006
0.0433641
0.0434263
0.0434873
0.0435471
0.0436056
0.0436628
0.0437188
0.0437736
0.043827
0.0438792
0.0439301
0.0439798
0.0440282
0.0440753
0.0441212
0.0441659
0.0442094
0.0442517
0.0442928
0.0443327
0.0443715
0.0444091
0.0444456
0.0444811
0.0445154
0.0445487
0.0445809
0.0446121
0.0446423
0.0446716
0.0446998
0.0447272
0.0447536
0.0447791
0.0448037
0.0448275
0.0402117
0.0402192
0.0402342
0.0402557
0.0402834
0.0403166
0.040355
0.0403981
0.0404455
0.0404968
0.0405517
0.0406099
0.0406711
0.0407349
0.0408011
0.0408694
0.0409397
0.0410116
0.0410849
0.0411595
0.0412352
0.0413118
0.0413892
0.0414671
0.0415455
0.0416242
0.0417031
0.0417821
0.0418611
0.0419399
0.0420185
0.0420968
0.0421747
0.0422521
0.042329
0.0424053
0.0424808
0.0425557
0.0426298
0.042703
0.0427753
0.0428467
0.0429171
0.0429865
0.0430548
0.043122
0.0431881
0.0432531
0.0433169
0.0433795
0.0434409
0.0435011
0.04356
0.0436177
0.0436741
0.0437293
0.0437832
0.0438358
0.0438872
0.0439373
0.0439861
0.0440337
0.0440801
0.0441252
0.0441691
0.0442118
0.0442533
0.0442936
0.0443328
0.0443708
0.0444077
0.0444435
0.0444781
0.0445118
0.0445443
0.0445759
0.0446064
0.0446359
0.0446645
0.0446921
0.0447188
0.0447445
0.0447694
0.0447934
0.0401663
0.0401739
0.0401888
0.0402102
0.0402378
0.0402709
0.0403091
0.040352
0.0403992
0.0404504
0.0405051
0.0405631
0.040624
0.0406876
0.0407536
0.0408217
0.0408917
0.0409633
0.0410365
0.0411109
0.0411863
0.0412627
0.0413399
0.0414176
0.0414958
0.0415743
0.0416531
0.0417319
0.0418107
0.0418894
0.0419679
0.0420461
0.042124
0.0422014
0.0422783
0.0423545
0.0424302
0.0425051
0.0425793
0.0426526
0.0427251
0.0427967
0.0428673
0.0429369
0.0430055
0.0430731
0.0431395
0.0432048
0.043269
0.043332
0.0433937
0.0434543
0.0435137
0.0435718
0.0436287
0.0436843
0.0437386
0.0437917
0.0438435
0.0438941
0.0439434
0.0439914
0.0440382
0.0440838
0.0441281
0.0441713
0.0442132
0.0442539
0.0442935
0.0443319
0.0443691
0.0444053
0.0444403
0.0444743
0.0445072
0.0445391
0.0445699
0.0445998
0.0446286
0.0446565
0.0446835
0.0447095
0.0447347
0.0447589
0.040121
0.0401286
0.0401434
0.0401648
0.0401922
0.0402252
0.0402632
0.040306
0.040353
0.040404
0.0404585
0.0405163
0.040577
0.0406404
0.0407061
0.0407739
0.0408437
0.0409151
0.040988
0.0410621
0.0411374
0.0412135
0.0412904
0.041368
0.0414459
0.0415243
0.0416028
0.0416815
0.0417601
0.0418387
0.0419171
0.0419952
0.042073
0.0421503
0.0422272
0.0423034
0.0423791
0.0424541
0.0425283
0.0426018
0.0426744
0.0427461
0.042817
0.0428868
0.0429556
0.0430235
0.0430902
0.0431558
0.0432203
0.0432837
0.0433459
0.0434069
0.0434667
0.0435252
0.0435825
0.0436386
0.0436934
0.043747
0.0437993
0.0438503
0.0439
0.0439486
0.0439958
0.0440418
0.0440866
0.0441302
0.0441726
0.0442137
0.0442537
0.0442925
0.0443302
0.0443667
0.0444022
0.0444365
0.0444698
0.044502
0.0445331
0.0445633
0.0445925
0.0446207
0.0446479
0.0446742
0.0446996
0.0447242
0.0400759
0.0400835
0.0400983
0.0401195
0.0401468
0.0401797
0.0402176
0.0402602
0.040307
0.0403578
0.0404121
0.0404697
0.0405301
0.0405933
0.0406587
0.0407264
0.0407959
0.040867
0.0409397
0.0410136
0.0410885
0.0411644
0.0412411
0.0413184
0.0413962
0.0414743
0.0415526
0.0416311
0.0417096
0.041788
0.0418662
0.0419442
0.0420218
0.0420991
0.0421759
0.0422521
0.0423278
0.0424028
0.042477
0.0425506
0.0426233
0.0426952
0.0427662
0.0428362
0.0429053
0.0429733
0.0430404
0.0431063
0.0431712
0.0432349
0.0432975
0.0433589
0.0434191
0.0434781
0.0435358
0.0435924
0.0436477
0.0437017
0.0437545
0.043806
0.0438562
0.0439052
0.043953
0.0439995
0.0440447
0.0440888
0.0441316
0.0441732
0.0442136
0.0442528
0.0442909
0.0443279
0.0443637
0.0443984
0.044432
0.0444646
0.0444961
0.0445266
0.0445561
0.0445846
0.0446121
0.0446387
0.0446644
0.0446892
0.0400312
0.0400387
0.0400534
0.0400746
0.0401018
0.0401345
0.0401722
0.0402147
0.0402613
0.0403119
0.040366
0.0404233
0.0404836
0.0405464
0.0406117
0.0406791
0.0407483
0.0408192
0.0408916
0.0409652
0.04104
0.0411156
0.041192
0.041269
0.0413466
0.0414244
0.0415026
0.0415808
0.0416591
0.0417373
0.0418154
0.0418932
0.0419707
0.0420478
0.0421245
0.0422007
0.0422763
0.0423513
0.0424256
0.0424992
0.042572
0.0426439
0.0427151
0.0427853
0.0428546
0.0429229
0.0429901
0.0430564
0.0431216
0.0431856
0.0432486
0.0433104
0.043371
0.0434304
0.0434887
0.0435457
0.0436014
0.043656
0.0437092
0.0437613
0.043812
0.0438615
0.0439098
0.0439568
0.0440025
0.044047
0.0440903
0.0441324
0.0441733
0.0442129
0.0442515
0.0442888
0.044325
0.0443601
0.0443942
0.0444271
0.044459
0.0444898
0.0445196
0.0445484
0.0445763
0.0446031
0.0446291
0.0446541
0.0399868
0.0399944
0.040009
0.0400301
0.0400572
0.0400897
0.0401273
0.0401696
0.0402161
0.0402664
0.0403203
0.0403774
0.0404374
0.0405001
0.0405651
0.0406322
0.0407012
0.0407718
0.0408439
0.0409173
0.0409917
0.0410671
0.0411433
0.04122
0.0412973
0.0413749
0.0414528
0.0415308
0.0416089
0.0416869
0.0417647
0.0418424
0.0419197
0.0419967
0.0420733
0.0421494
0.0422249
0.0422998
0.0423741
0.0424477
0.0425205
0.0425926
0.0426638
0.0427341
0.0428036
0.0428721
0.0429396
0.0430061
0.0430716
0.043136
0.0431993
0.0432615
0.0433226
0.0433824
0.0434411
0.0434986
0.0435549
0.0436099
0.0436637
0.0437162
0.0437675
0.0438175
0.0438663
0.0439138
0.04396
0.0440051
0.0440488
0.0440914
0.0441328
0.0441729
0.0442119
0.0442497
0.0442863
0.0443218
0.0443562
0.0443895
0.0444218
0.044453
0.0444831
0.0445123
0.0445404
0.0445676
0.0445938
0.0446192
0.039943
0.0399505
0.0399651
0.0399861
0.0400131
0.0400455
0.040083
0.040125
0.0401713
0.0402215
0.0402752
0.040332
0.0403918
0.0404542
0.0405189
0.0405858
0.0406545
0.0407249
0.0407967
0.0408698
0.040944
0.0410191
0.041095
0.0411715
0.0412485
0.0413259
0.0414035
0.0414812
0.041559
0.0416368
0.0417144
0.0417919
0.041869
0.0419458
0.0420222
0.0420982
0.0421736
0.0422484
0.0423227
0.0423962
0.0424691
0.0425411
0.0426124
0.0426829
0.0427525
0.0428212
0.0428889
0.0429557
0.0430214
0.0430861
0.0431498
0.0432124
0.0432738
0.0433341
0.0433933
0.0434512
0.043508
0.0435635
0.0436178
0.0436709
0.0437227
0.0437732
0.0438226
0.0438706
0.0439174
0.043963
0.0440073
0.0440504
0.0440922
0.0441328
0.0441723
0.0442106
0.0442477
0.0442836
0.0443184
0.0443521
0.0443848
0.0444163
0.0444468
0.0444763
0.0445048
0.0445323
0.0445588
0.0445844
0.0398998
0.0399073
0.0399218
0.0399427
0.0399696
0.0400019
0.0400392
0.0400811
0.0401272
0.0401772
0.0402306
0.0402873
0.0403468
0.040409
0.0404734
0.04054
0.0406085
0.0406786
0.0407502
0.040823
0.0408969
0.0409717
0.0410473
0.0411235
0.0412003
0.0412773
0.0413547
0.0414322
0.0415097
0.0415872
0.0416646
0.0417418
0.0418187
0.0418953
0.0419716
0.0420473
0.0421226
0.0421973
0.0422714
0.0423449
0.0424177
0.0424898
0.0425611
0.0426316
0.0427013
0.0427702
0.0428381
0.042905
0.0429711
0.0430361
0.0431001
0.043163
0.0432248
0.0432855
0.0433451
0.0434036
0.0434608
0.0435169
0.0435717
0.0436253
0.0436777
0.0437288
0.0437787
0.0438273
0.0438747
0.0439208
0.0439657
0.0440093
0.0440517
0.0440928
0.0441328
0.0441715
0.0442091
0.0442455
0.0442808
0.0443149
0.0443479
0.0443799
0.0444107
0.0444406
0.0444694
0.0444972
0.044524
0.0445499
0.0398573
0.0398647
0.0398792
0.0399
0.0399268
0.039959
0.0399961
0.0400378
0.0400838
0.0401335
0.0401868
0.0402432
0.0403025
0.0403644
0.0404286
0.040495
0.0405632
0.040633
0.0407043
0.0407768
0.0408504
0.040925
0.0410003
0.0410762
0.0411527
0.0412294
0.0413065
0.0413837
0.041461
0.0415382
0.0416153
0.0416923
0.0417689
0.0418453
0.0419213
0.0419969
0.042072
0.0421465
0.0422205
0.0422939
0.0423666
0.0424386
0.0425099
0.0425805
0.0426502
0.0427192
0.0427872
0.0428544
0.0429206
0.0429859
0.0430502
0.0431134
0.0431756
0.0432368
0.0432968
0.0433557
0.0434134
0.04347
0.0435254
0.0435796
0.0436325
0.0436842
0.0437347
0.0437839
0.0438319
0.0438786
0.043924
0.0439682
0.0440112
0.0440529
0.0440934
0.0441327
0.0441708
0.0442077
0.0442434
0.044278
0.0443114
0.0443438
0.044375
0.0444053
0.0444344
0.0444626
0.0444897
0.0445159
0.0398155
0.0398229
0.0398373
0.0398581
0.0398847
0.0399168
0.0399538
0.0399953
0.0400411
0.0400906
0.0401437
0.0401999
0.0402589
0.0403206
0.0403846
0.0404507
0.0405186
0.0405882
0.0406592
0.0407314
0.0408048
0.040879
0.040954
0.0410297
0.0411058
0.0411823
0.041259
0.0413359
0.0414129
0.0414899
0.0415667
0.0416434
0.0417198
0.0417959
0.0418716
0.0419469
0.0420218
0.0420962
0.04217
0.0422432
0.0423158
0.0423878
0.042459
0.0425295
0.0425993
0.0426683
0.0427364
0.0428037
0.0428701
0.0429356
0.0430002
0.0430638
0.0431263
0.0431878
0.0432483
0.0433077
0.0433659
0.043423
0.0434789
0.0435337
0.0435872
0.0436395
0.0436906
0.0437405
0.0437891
0.0438364
0.0438825
0.0439273
0.0439708
0.0440131
0.0440542
0.044094
0.0441327
0.0441701
0.0442063
0.0442414
0.0442753
0.0443081
0.0443398
0.0443704
0.0443999
0.0444284
0.0444559
0.0444824
0.0397746
0.0397819
0.0397963
0.039817
0.0398435
0.0398754
0.0399123
0.0399537
0.0399992
0.0400486
0.0401014
0.0401574
0.0402162
0.0402776
0.0403414
0.0404072
0.0404748
0.0405441
0.0406149
0.0406868
0.0407599
0.0408339
0.0409086
0.0409839
0.0410597
0.0411359
0.0412124
0.041289
0.0413656
0.0414423
0.0415188
0.0415952
0.0416713
0.0417471
0.0418226
0.0418976
0.0419722
0.0420464
0.04212
0.042193
0.0422655
0.0423373
0.0424084
0.0424789
0.0425486
0.0426176
0.0426858
0.0427532
0.0428197
0.0428854
0.0429502
0.043014
0.0430769
0.0431388
0.0431997
0.0432595
0.0433182
0.0433758
0.0434323
0.0434876
0.0435418
0.0435947
0.0436464
0.0436969
0.0437462
0.0437942
0.0438409
0.0438864
0.0439306
0.0439736
0.0440153
0.0440557
0.0440949
0.0441329
0.0441697
0.0442053
0.0442397
0.044273
0.0443051
0.0443362
0.0443661
0.044395
0.0444228
0.0444497
0.0397345
0.0397418
0.0397561
0.0397767
0.0398031
0.0398349
0.0398716
0.0399129
0.0399582
0.0400074
0.04006
0.0401158
0.0401744
0.0402355
0.040299
0.0403646
0.040432
0.040501
0.0405715
0.0406432
0.0407159
0.0407896
0.040864
0.040939
0.0410145
0.0410904
0.0411666
0.0412428
0.0413192
0.0413955
0.0414717
0.0415478
0.0416236
0.0416991
0.0417742
0.041849
0.0419233
0.0419972
0.0420706
0.0421434
0.0422156
0.0422872
0.0423582
0.0424286
0.0424982
0.0425672
0.0426354
0.0427028
0.0427695
0.0428353
0.0429002
0.0429643
0.0430275
0.0430897
0.0431509
0.0432112
0.0432704
0.0433285
0.0433855
0.0434414
0.0434962
0.0435498
0.0436022
0.0436534
0.0437033
0.043752
0.0437995
0.0438456
0.0438905
0.0439342
0.0439766
0.0440177
0.0440575
0.0440961
0.0441335
0.0441697
0.0442047
0.0442385
0.0442711
0.0443026
0.044333
0.0443623
0.0443905
0.0444177
0.0396953
0.0397026
0.0397168
0.0397373
0.0397636
0.0397953
0.0398319
0.0398729
0.0399181
0.0399671
0.0400195
0.0400751
0.0401334
0.0401944
0.0402576
0.0403229
0.0403901
0.0404588
0.040529
0.0406004
0.0406729
0.0407462
0.0408204
0.0408951
0.0409703
0.0410459
0.0411217
0.0411976
0.0412736
0.0413496
0.0414255
0.0415012
0.0415767
0.0416519
0.0417267
0.0418012
0.0418752
0.0419488
0.0420218
0.0420944
0.0421664
0.0422378
0.0423086
0.0423788
0.0424483
0.0425171
0.0425853
0.0426527
0.0427194
0.0427853
0.0428504
0.0429146
0.042978
0.0430405
0.0431021
0.0431627
0.0432224
0.043281
0.0433386
0.0433951
0.0434505
0.0435047
0.0435578
0.0436097
0.0436603
0.0437098
0.043758
0.0438049
0.0438506
0.043895
0.0439381
0.04398
0.0440205
0.0440598
0.0440979
0.0441347
0.0441703
0.0442047
0.0442378
0.0442699
0.0443007
0.0443305
0.0443591
0.0443867
0.039657
0.0396643
0.0396784
0.0396989
0.0397251
0.0397566
0.0397931
0.039834
0.039879
0.0399278
0.03998
0.0400353
0.0400935
0.0401542
0.0402172
0.0402822
0.0403491
0.0404176
0.0404875
0.0405586
0.0406308
0.0407039
0.0407777
0.0408521
0.040927
0.0410023
0.0410778
0.0411534
0.0412291
0.0413047
0.0413802
0.0414556
0.0415307
0.0416056
0.0416801
0.0417542
0.0418279
0.0419011
0.0419738
0.0420461
0.0421178
0.0421889
0.0422595
0.0423295
0.0423988
0.0424675
0.0425355
0.0426029
0.0426695
0.0427355
0.0428006
0.042865
0.0429286
0.0429914
0.0430532
0.0431142
0.0431743
0.0432334
0.0432915
0.0433485
0.0434046
0.0434595
0.0435132
0.0435659
0.0436173
0.0436675
0.0437165
0.0437643
0.0438108
0.043856
0.0438999
0.0439425
0.0439839
0.0440239
0.0440627
0.0441002
0.0441365
0.0441715
0.0442053
0.0442379
0.0442693
0.0442996
0.0443288
0.0443568
0.0396197
0.0396269
0.039641
0.0396614
0.0396875
0.0397189
0.0397552
0.039796
0.0398408
0.0398894
0.0399414
0.0399965
0.0400545
0.0401149
0.0401777
0.0402425
0.0403091
0.0403774
0.040447
0.0405178
0.0405898
0.0406625
0.0407361
0.0408102
0.0408848
0.0409597
0.0410349
0.0411102
0.0411855
0.0412608
0.041336
0.041411
0.0414857
0.0415602
0.0416343
0.0417081
0.0417814
0.0418543
0.0419267
0.0419986
0.04207
0.0421408
0.0422111
0.0422808
0.0423499
0.0424184
0.0424862
0.0425535
0.04262
0.0426859
0.0427511
0.0428156
0.0428793
0.0429422
0.0430044
0.0430657
0.0431261
0.0431856
0.0432442
0.0433018
0.0433584
0.043414
0.0434685
0.0435219
0.0435741
0.0436251
0.043675
0.0437236
0.043771
0.0438171
0.0438619
0.0439054
0.0439476
0.0439885
0.0440281
0.0440664
0.0441035
0.0441392
0.0441737
0.0442069
0.044239
0.0442698
0.0442995
0.044328
0.0395833
0.0395905
0.0396046
0.0396249
0.0396509
0.0396822
0.0397183
0.0397589
0.0398036
0.039852
0.0399039
0.0399588
0.0400165
0.0400767
0.0401393
0.0402038
0.0402702
0.0403382
0.0404075
0.0404781
0.0405497
0.0406222
0.0406955
0.0407693
0.0408436
0.0409182
0.040993
0.041068
0.041143
0.0412179
0.0412927
0.0413674
0.0414418
0.0415159
0.0415896
0.041663
0.0417359
0.0418084
0.0418804
0.0419519
0.0420229
0.0420934
0.0421634
0.0422328
0.0423016
0.0423698
0.0424375
0.0425045
0.0425709
0.0426367
0.0427019
0.0427663
0.0428301
0.0428932
0.0429555
0.043017
0.0430778
0.0431377
0.0431967
0.0432549
0.0433121
0.0433683
0.0434235
0.0434776
0.0435307
0.0435826
0.0436333
0.0436829
0.0437312
0.0437782
0.043824
0.0438684
0.0439116
0.0439534
0.0439939
0.0440331
0.044071
0.0441076
0.0441429
0.0441769
0.0442096
0.0442411
0.0442714
0.0443005
0.0395479
0.0395552
0.0395692
0.0395894
0.0396153
0.0396465
0.0396825
0.0397229
0.0397674
0.0398157
0.0398673
0.039922
0.0399795
0.0400395
0.0401018
0.0401662
0.0402323
0.0403
0.0403691
0.0404394
0.0405108
0.040583
0.0406559
0.0407295
0.0408034
0.0408777
0.0409522
0.0410269
0.0411015
0.0411761
0.0412506
0.0413248
0.0413988
0.0414725
0.0415459
0.0416188
0.0416914
0.0417635
0.0418351
0.0419062
0.0419768
0.0420469
0.0421165
0.0421855
0.042254
0.0423219
0.0423893
0.0424561
0.0425223
0.0425879
0.0426529
0.0427173
0.0427811
0.0428442
0.0429066
0.0429684
0.0430294
0.0430896
0.043149
0.0432077
0.0432654
0.0433223
0.0433781
0.043433
0.0434869
0.0435397
0.0435913
0.0436418
0.0436911
0.0437392
0.043786
0.0438316
0.0438758
0.0439187
0.0439602
0.0440004
0.0440392
0.0440768
0.0441129
0.0441478
0.0441813
0.0442136
0.0442446
0.0442744
0.0395136
0.0395208
0.0395347
0.0395549
0.0395807
0.0396117
0.0396476
0.0396879
0.0397323
0.0397804
0.0398318
0.0398863
0.0399436
0.0400034
0.0400655
0.0401296
0.0401955
0.0402629
0.0403318
0.0404018
0.0404729
0.0405449
0.0406175
0.0406907
0.0407644
0.0408384
0.0409126
0.0409869
0.0410612
0.0411354
0.0412095
0.0412834
0.041357
0.0414303
0.0415033
0.0415758
0.0416479
0.0417196
0.0417908
0.0418615
0.0419316
0.0420013
0.0420705
0.0421391
0.0422072
0.0422748
0.0423418
0.0424083
0.0424742
0.0425396
0.0426044
0.0426687
0.0427323
0.0427954
0.0428579
0.0429197
0.0429809
0.0430414
0.0431011
0.0431602
0.0432184
0.0432758
0.0433324
0.043388
0.0434427
0.0434964
0.043549
0.0436005
0.0436509
0.0437
0.043748
0.0437946
0.04384
0.043884
0.0439267
0.043968
0.0440079
0.0440465
0.0440837
0.0441196
0.0441541
0.0441872
0.0442191
0.0442496
0.0394802
0.0394874
0.0395013
0.0395214
0.0395471
0.039578
0.0396138
0.039654
0.0396982
0.0397461
0.0397973
0.0398516
0.0399087
0.0399683
0.0400302
0.040094
0.0401597
0.0402269
0.0402955
0.0403653
0.0404361
0.0405078
0.0405802
0.0406531
0.0407265
0.0408002
0.040874