/*--------------------------------*- C++ -*----------------------------------*\
  =========                 |
  \\      /  F ield         | OpenFOAM: The Open Source CFD Toolbox
   \\    /   O peration     | Website:  https://openfoam.org
    \\  /    A nd           | Version:  10
     \\/     M anipulation  |
\*---------------------------------------------------------------------------*/
FoamFile
{
    format      ascii;
    class       volScalarField;
    location    "0";
    object      p_d5;
}
// * * * * * * * * * * * * * * * * * * * * * * * * * * * * * * * * * * * * * //

dimensions      [0 2 -2 0 0 0 0];

internalField   nonuniform List<scalar> 
84253
(
-0.0114201
-0.0114227
-0.0114276
-0.0114348
-0.011444
-0.011455
-0.0114678
-0.0114821
-0.0114979
-0.011515
-0.0115333
-0.0115526
-0.011573
-0.0115942
-0.0116163
-0.0116391
-0.0116625
-0.0116865
-0.0117109
-0.0117358
-0.0117611
-0.0117867
-0.0118125
-0.0118386
-0.0118648
-0.0118911
-0.0119175
-0.011944
-0.0119704
-0.0119968
-0.0120232
-0.0120494
-0.0120755
-0.0121015
-0.0121273
-0.0121528
-0.0121782
-0.0122033
-0.0122282
-0.0122528
-0.012277
-0.012301
-0.0123247
-0.012348
-0.012371
-0.0123936
-0.0124158
-0.0124377
-0.0124592
-0.0124803
-0.0125011
-0.0125214
-0.0125413
-0.0125609
-0.01258
-0.0125987
-0.012617
-0.012635
-0.0126525
-0.0126696
-0.0126863
-0.0127026
-0.0127185
-0.012734
-0.0127491
-0.0127638
-0.0127782
-0.0127921
-0.0128057
-0.0128189
-0.0128317
-0.0128442
-0.0128563
-0.0128681
-0.0128795
-0.0128905
-0.0129013
-0.0129116
-0.0129217
-0.0129314
-0.0129409
-0.01295
-0.0129588
-0.0129673
-0.0114162
-0.0114188
-0.0114237
-0.0114309
-0.0114401
-0.0114511
-0.0114639
-0.0114782
-0.011494
-0.011511
-0.0115293
-0.0115487
-0.011569
-0.0115902
-0.0116123
-0.011635
-0.0116584
-0.0116824
-0.0117069
-0.0117317
-0.011757
-0.0117826
-0.0118084
-0.0118344
-0.0118606
-0.0118869
-0.0119133
-0.0119397
-0.0119661
-0.0119925
-0.0120189
-0.0120451
-0.0120712
-0.0120971
-0.0121229
-0.0121485
-0.0121738
-0.0121989
-0.0122238
-0.0122483
-0.0122726
-0.0122966
-0.0123202
-0.0123436
-0.0123665
-0.0123892
-0.0124114
-0.0124333
-0.0124548
-0.012476
-0.0124967
-0.0125171
-0.012537
-0.0125566
-0.0125757
-0.0125945
-0.0126128
-0.0126308
-0.0126483
-0.0126654
-0.0126821
-0.0126985
-0.0127144
-0.0127299
-0.0127451
-0.0127598
-0.0127742
-0.0127882
-0.0128018
-0.012815
-0.0128278
-0.0128403
-0.0128524
-0.0128642
-0.0128756
-0.0128867
-0.0128974
-0.0129078
-0.0129179
-0.0129277
-0.0129371
-0.0129462
-0.012955
-0.0129635
-0.0114116
-0.0114142
-0.0114191
-0.0114263
-0.0114355
-0.0114465
-0.0114592
-0.0114735
-0.0114893
-0.0115063
-0.0115246
-0.0115439
-0.0115642
-0.0115854
-0.0116074
-0.0116302
-0.0116535
-0.0116774
-0.0117019
-0.0117267
-0.0117519
-0.0117774
-0.0118032
-0.0118292
-0.0118553
-0.0118816
-0.0119079
-0.0119343
-0.0119607
-0.011987
-0.0120133
-0.0120395
-0.0120655
-0.0120914
-0.0121171
-0.0121427
-0.012168
-0.012193
-0.0122179
-0.0122424
-0.0122666
-0.0122906
-0.0123142
-0.0123375
-0.0123605
-0.0123831
-0.0124053
-0.0124272
-0.0124487
-0.0124698
-0.0124906
-0.0125109
-0.0125309
-0.0125504
-0.0125696
-0.0125883
-0.0126067
-0.0126246
-0.0126421
-0.0126593
-0.012676
-0.0126923
-0.0127083
-0.0127238
-0.012739
-0.0127537
-0.0127681
-0.0127821
-0.0127957
-0.0128089
-0.0128218
-0.0128343
-0.0128464
-0.0128582
-0.0128696
-0.0128807
-0.0128914
-0.0129018
-0.0129119
-0.0129216
-0.0129311
-0.0129402
-0.012949
-0.0129575
-0.0114068
-0.0114093
-0.0114143
-0.0114214
-0.0114306
-0.0114416
-0.0114543
-0.0114686
-0.0114843
-0.0115013
-0.0115195
-0.0115388
-0.011559
-0.0115802
-0.0116022
-0.0116248
-0.0116481
-0.011672
-0.0116963
-0.0117211
-0.0117462
-0.0117717
-0.0117974
-0.0118233
-0.0118493
-0.0118755
-0.0119018
-0.011928
-0.0119543
-0.0119806
-0.0120068
-0.0120329
-0.0120588
-0.0120846
-0.0121103
-0.0121357
-0.012161
-0.012186
-0.0122107
-0.0122352
-0.0122593
-0.0122832
-0.0123068
-0.01233
-0.0123529
-0.0123755
-0.0123977
-0.0124195
-0.0124409
-0.012462
-0.0124827
-0.012503
-0.0125229
-0.0125424
-0.0125615
-0.0125802
-0.0125986
-0.0126165
-0.012634
-0.0126511
-0.0126678
-0.0126841
-0.0127
-0.0127155
-0.0127306
-0.0127454
-0.0127597
-0.0127737
-0.0127873
-0.0128005
-0.0128133
-0.0128258
-0.0128379
-0.0128496
-0.012861
-0.0128721
-0.0128828
-0.0128932
-0.0129033
-0.012913
-0.0129224
-0.0129315
-0.0129403
-0.0129488
-0.0114003
-0.0114028
-0.0114078
-0.0114149
-0.011424
-0.011435
-0.0114477
-0.0114619
-0.0114776
-0.0114945
-0.0115127
-0.0115319
-0.0115521
-0.0115732
-0.0115951
-0.0116177
-0.0116409
-0.0116647
-0.0116889
-0.0117136
-0.0117386
-0.011764
-0.0117896
-0.0118154
-0.0118413
-0.0118674
-0.0118936
-0.0119197
-0.0119459
-0.011972
-0.0119981
-0.0120241
-0.01205
-0.0120757
-0.0121012
-0.0121265
-0.0121517
-0.0121765
-0.0122012
-0.0122256
-0.0122496
-0.0122734
-0.0122969
-0.01232
-0.0123429
-0.0123653
-0.0123874
-0.0124092
-0.0124306
-0.0124516
-0.0124722
-0.0124924
-0.0125123
-0.0125318
-0.0125508
-0.0125695
-0.0125877
-0.0126056
-0.0126231
-0.0126401
-0.0126568
-0.0126731
-0.0126889
-0.0127044
-0.0127195
-0.0127342
-0.0127485
-0.0127624
-0.012776
-0.0127892
-0.012802
-0.0128144
-0.0128265
-0.0128383
-0.0128497
-0.0128607
-0.0128714
-0.0128818
-0.0128919
-0.0129016
-0.012911
-0.0129201
-0.0129289
-0.0129375
-0.0113922
-0.0113948
-0.0113997
-0.0114068
-0.0114159
-0.0114268
-0.0114395
-0.0114537
-0.0114693
-0.0114862
-0.0115043
-0.0115234
-0.0115436
-0.0115646
-0.0115864
-0.0116089
-0.011632
-0.0116557
-0.0116798
-0.0117044
-0.0117293
-0.0117546
-0.01178
-0.0118057
-0.0118316
-0.0118575
-0.0118835
-0.0119096
-0.0119356
-0.0119616
-0.0119875
-0.0120134
-0.0120391
-0.0120647
-0.0120901
-0.0121153
-0.0121403
-0.012165
-0.0121895
-0.0122138
-0.0122378
-0.0122614
-0.0122848
-0.0123078
-0.0123305
-0.0123529
-0.0123749
-0.0123966
-0.0124179
-0.0124388
-0.0124594
-0.0124795
-0.0124993
-0.0125187
-0.0125377
-0.0125563
-0.0125745
-0.0125923
-0.0126098
-0.0126268
-0.0126434
-0.0126596
-0.0126755
-0.0126909
-0.012706
-0.0127207
-0.012735
-0.0127489
-0.0127625
-0.0127756
-0.0127885
-0.0128009
-0.012813
-0.0128248
-0.0128362
-0.0128472
-0.0128579
-0.0128683
-0.0128784
-0.0128881
-0.0128976
-0.0129067
-0.0129155
-0.012924
-0.0113828
-0.0113853
-0.0113902
-0.0113972
-0.0114063
-0.0114172
-0.0114298
-0.011444
-0.0114595
-0.0114764
-0.0114944
-0.0115135
-0.0115335
-0.0115545
-0.0115762
-0.0115986
-0.0116216
-0.0116452
-0.0116692
-0.0116936
-0.0117185
-0.0117436
-0.0117689
-0.0117944
-0.0118201
-0.0118459
-0.0118718
-0.0118977
-0.0119236
-0.0119494
-0.0119752
-0.0120009
-0.0120265
-0.0120519
-0.0120771
-0.0121022
-0.012127
-0.0121517
-0.012176
-0.0122001
-0.012224
-0.0122475
-0.0122708
-0.0122937
-0.0123163
-0.0123385
-0.0123605
-0.012382
-0.0124032
-0.0124241
-0.0124445
-0.0124646
-0.0124843
-0.0125037
-0.0125226
-0.0125412
-0.0125593
-0.0125771
-0.0125945
-0.0126115
-0.0126281
-0.0126443
-0.0126601
-0.0126756
-0.0126906
-0.0127053
-0.0127196
-0.0127335
-0.012747
-0.0127602
-0.012773
-0.0127855
-0.0127975
-0.0128093
-0.0128207
-0.0128317
-0.0128425
-0.0128529
-0.0128629
-0.0128727
-0.0128821
-0.0128912
-0.0129001
-0.0129086
-0.0113724
-0.0113749
-0.0113798
-0.0113869
-0.0113959
-0.0114068
-0.0114193
-0.0114334
-0.0114489
-0.0114657
-0.0114836
-0.0115026
-0.0115226
-0.0115434
-0.011565
-0.0115873
-0.0116102
-0.0116337
-0.0116576
-0.0116819
-0.0117066
-0.0117316
-0.0117568
-0.0117821
-0.0118077
-0.0118333
-0.011859
-0.0118847
-0.0119105
-0.0119361
-0.0119618
-0.0119873
-0.0120127
-0.0120379
-0.012063
-0.0120879
-0.0121126
-0.012137
-0.0121612
-0.0121852
-0.0122089
-0.0122323
-0.0122554
-0.0122781
-0.0123006
-0.0123227
-0.0123445
-0.012366
-0.0123871
-0.0124078
-0.0124282
-0.0124482
-0.0124678
-0.0124871
-0.012506
-0.0125244
-0.0125425
-0.0125603
-0.0125776
-0.0125945
-0.0126111
-0.0126272
-0.012643
-0.0126584
-0.0126735
-0.0126881
-0.0127024
-0.0127162
-0.0127298
-0.0127429
-0.0127557
-0.0127682
-0.0127802
-0.012792
-0.0128034
-0.0128144
-0.0128252
-0.0128355
-0.0128456
-0.0128554
-0.0128648
-0.012874
-0.0128828
-0.0128913
-0.0113612
-0.0113637
-0.0113686
-0.0113756
-0.0113846
-0.0113955
-0.0114079
-0.011422
-0.0114374
-0.0114541
-0.011472
-0.0114909
-0.0115108
-0.0115315
-0.011553
-0.0115752
-0.011598
-0.0116213
-0.0116451
-0.0116693
-0.0116938
-0.0117186
-0.0117436
-0.0117689
-0.0117942
-0.0118197
-0.0118452
-0.0118708
-0.0118963
-0.0119218
-0.0119472
-0.0119725
-0.0119977
-0.0120228
-0.0120477
-0.0120724
-0.0120969
-0.0121211
-0.0121452
-0.0121689
-0.0121924
-0.0122157
-0.0122386
-0.0122612
-0.0122835
-0.0123055
-0.0123272
-0.0123485
-0.0123695
-0.0123901
-0.0124103
-0.0124302
-0.0124498
-0.0124689
-0.0124877
-0.0125061
-0.0125241
-0.0125418
-0.012559
-0.0125759
-0.0125924
-0.0126085
-0.0126243
-0.0126396
-0.0126546
-0.0126692
-0.0126835
-0.0126974
-0.0127109
-0.012724
-0.0127368
-0.0127492
-0.0127613
-0.0127731
-0.0127845
-0.0127955
-0.0128062
-0.0128166
-0.0128267
-0.0128365
-0.0128459
-0.0128551
-0.0128639
-0.0128725
-0.0113492
-0.0113516
-0.0113565
-0.0113635
-0.0113725
-0.0113832
-0.0113957
-0.0114096
-0.011425
-0.0114416
-0.0114594
-0.0114782
-0.011498
-0.0115186
-0.01154
-0.0115621
-0.0115848
-0.011608
-0.0116316
-0.0116556
-0.01168
-0.0117047
-0.0117295
-0.0117546
-0.0117798
-0.011805
-0.0118304
-0.0118557
-0.0118811
-0.0119064
-0.0119316
-0.0119567
-0.0119817
-0.0120065
-0.0120312
-0.0120557
-0.01208
-0.0121041
-0.0121279
-0.0121515
-0.0121748
-0.0121978
-0.0122206
-0.012243
-0.0122652
-0.012287
-0.0123085
-0.0123297
-0.0123505
-0.012371
-0.0123911
-0.0124109
-0.0124303
-0.0124494
-0.012468
-0.0124864
-0.0125043
-0.0125219
-0.0125391
-0.0125559
-0.0125723
-0.0125884
-0.0126041
-0.0126194
-0.0126344
-0.012649
-0.0126632
-0.012677
-0.0126905
-0.0127036
-0.0127164
-0.0127288
-0.0127409
-0.0127527
-0.012764
-0.0127751
-0.0127858
-0.0127962
-0.0128063
-0.0128161
-0.0128256
-0.0128347
-0.0128436
-0.0128521
-0.0113365
-0.0113389
-0.0113438
-0.0113507
-0.0113597
-0.0113704
-0.0113828
-0.0113967
-0.011412
-0.0114285
-0.0114462
-0.011465
-0.0114846
-0.0115052
-0.0115264
-0.0115484
-0.0115709
-0.011594
-0.0116175
-0.0116414
-0.0116656
-0.01169
-0.0117148
-0.0117396
-0.0117646
-0.0117897
-0.0118149
-0.01184
-0.0118651
-0.0118902
-0.0119152
-0.0119401
-0.0119649
-0.0119895
-0.012014
-0.0120383
-0.0120623
-0.0120862
-0.0121098
-0.0121332
-0.0121563
-0.0121791
-0.0122017
-0.0122239
-0.0122459
-0.0122675
-0.0122888
-0.0123098
-0.0123305
-0.0123508
-0.0123708
-0.0123905
-0.0124098
-0.0124287
-0.0124473
-0.0124655
-0.0124833
-0.0125008
-0.0125179
-0.0125347
-0.012551
-0.012567
-0.0125827
-0.0125979
-0.0126129
-0.0126274
-0.0126416
-0.0126554
-0.0126689
-0.012682
-0.0126947
-0.0127071
-0.0127192
-0.0127309
-0.0127423
-0.0127534
-0.0127641
-0.0127745
-0.0127846
-0.0127944
-0.0128039
-0.012813
-0.0128219
-0.0128305
-0.0113233
-0.0113257
-0.0113306
-0.0113375
-0.0113464
-0.011357
-0.0113694
-0.0113832
-0.0113984
-0.0114149
-0.0114325
-0.0114512
-0.0114707
-0.0114912
-0.0115123
-0.0115341
-0.0115565
-0.0115795
-0.0116028
-0.0116265
-0.0116506
-0.0116749
-0.0116994
-0.0117241
-0.0117489
-0.0117738
-0.0117987
-0.0118237
-0.0118486
-0.0118735
-0.0118982
-0.0119229
-0.0119475
-0.0119719
-0.0119961
-0.0120201
-0.012044
-0.0120676
-0.012091
-0.0121141
-0.012137
-0.0121596
-0.0121819
-0.012204
-0.0122257
-0.0122472
-0.0122683
-0.0122891
-0.0123096
-0.0123298
-0.0123496
-0.0123691
-0.0123882
-0.012407
-0.0124254
-0.0124435
-0.0124613
-0.0124786
-0.0124957
-0.0125123
-0.0125286
-0.0125445
-0.0125601
-0.0125753
-0.0125902
-0.0126047
-0.0126188
-0.0126326
-0.012646
-0.0126591
-0.0126719
-0.0126843
-0.0126963
-0.012708
-0.0127194
-0.0127305
-0.0127412
-0.0127516
-0.0127617
-0.0127715
-0.012781
-0.0127902
-0.012799
-0.0128076
-0.0113096
-0.0113121
-0.0113169
-0.0113238
-0.0113326
-0.0113432
-0.0113555
-0.0113693
-0.0113844
-0.0114008
-0.0114183
-0.0114369
-0.0114564
-0.0114767
-0.0114977
-0.0115194
-0.0115417
-0.0115645
-0.0115877
-0.0116113
-0.0116351
-0.0116593
-0.0116836
-0.0117081
-0.0117327
-0.0117574
-0.0117822
-0.0118069
-0.0118316
-0.0118562
-0.0118807
-0.0119052
-0.0119295
-0.0119536
-0.0119776
-0.0120014
-0.012025
-0.0120484
-0.0120715
-0.0120944
-0.012117
-0.0121394
-0.0121615
-0.0121833
-0.0122048
-0.0122261
-0.012247
-0.0122676
-0.0122879
-0.0123079
-0.0123275
-0.0123468
-0.0123658
-0.0123844
-0.0124027
-0.0124207
-0.0124383
-0.0124556
-0.0124725
-0.012489
-0.0125052
-0.0125211
-0.0125366
-0.0125517
-0.0125665
-0.012581
-0.0125951
-0.0126088
-0.0126222
-0.0126352
-0.012648
-0.0126603
-0.0126724
-0.0126841
-0.0126954
-0.0127065
-0.0127172
-0.0127276
-0.0127377
-0.0127475
-0.012757
-0.0127662
-0.0127751
-0.0127837
-0.0112956
-0.0112981
-0.0113028
-0.0113097
-0.0113185
-0.0113291
-0.0113413
-0.011355
-0.0113701
-0.0113864
-0.0114038
-0.0114223
-0.0114417
-0.0114619
-0.0114828
-0.0115044
-0.0115265
-0.0115491
-0.0115722
-0.0115956
-0.0116194
-0.0116433
-0.0116675
-0.0116918
-0.0117162
-0.0117407
-0.0117652
-0.0117897
-0.0118142
-0.0118386
-0.0118629
-0.0118871
-0.0119111
-0.011935
-0.0119587
-0.0119823
-0.0120056
-0.0120287
-0.0120516
-0.0120742
-0.0120966
-0.0121187
-0.0121406
-0.0121621
-0.0121834
-0.0122044
-0.0122251
-0.0122455
-0.0122656
-0.0122853
-0.0123048
-0.0123239
-0.0123427
-0.0123612
-0.0123793
-0.0123971
-0.0124146
-0.0124317
-0.0124485
-0.0124649
-0.012481
-0.0124968
-0.0125122
-0.0125273
-0.012542
-0.0125564
-0.0125704
-0.0125841
-0.0125974
-0.0126104
-0.0126231
-0.0126355
-0.0126475
-0.0126592
-0.0126705
-0.0126816
-0.0126923
-0.0127027
-0.0127128
-0.0127226
-0.0127321
-0.0127413
-0.0127502
-0.0127588
-0.0112814
-0.0112838
-0.0112885
-0.0112954
-0.0113041
-0.0113147
-0.0113268
-0.0113405
-0.0113555
-0.0113717
-0.0113891
-0.0114074
-0.0114267
-0.0114468
-0.0114676
-0.0114891
-0.0115111
-0.0115336
-0.0115565
-0.0115798
-0.0116033
-0.0116271
-0.0116511
-0.0116752
-0.0116995
-0.0117237
-0.011748
-0.0117723
-0.0117966
-0.0118207
-0.0118448
-0.0118687
-0.0118925
-0.0119161
-0.0119396
-0.0119629
-0.0119859
-0.0120087
-0.0120314
-0.0120537
-0.0120758
-0.0120977
-0.0121192
-0.0121405
-0.0121616
-0.0121823
-0.0122028
-0.0122229
-0.0122428
-0.0122623
-0.0122815
-0.0123004
-0.012319
-0.0123373
-0.0123553
-0.0123729
-0.0123902
-0.0124072
-0.0124238
-0.0124401
-0.0124561
-0.0124718
-0.0124871
-0.012502
-0.0125167
-0.012531
-0.0125449
-0.0125586
-0.0125718
-0.0125848
-0.0125975
-0.0126098
-0.0126217
-0.0126334
-0.0126447
-0.0126558
-0.0126665
-0.0126769
-0.012687
-0.0126968
-0.0127063
-0.0127155
-0.0127244
-0.012733
-0.0112669
-0.0112693
-0.0112741
-0.0112809
-0.0112896
-0.0113001
-0.0113122
-0.0113257
-0.0113407
-0.0113568
-0.0113741
-0.0113924
-0.0114116
-0.0114315
-0.0114523
-0.0114736
-0.0114955
-0.0115178
-0.0115406
-0.0115637
-0.0115871
-0.0116108
-0.0116346
-0.0116585
-0.0116826
-0.0117066
-0.0117307
-0.0117548
-0.0117788
-0.0118027
-0.0118265
-0.0118502
-0.0118737
-0.0118971
-0.0119203
-0.0119433
-0.011966
-0.0119886
-0.0120109
-0.012033
-0.0120548
-0.0120764
-0.0120977
-0.0121187
-0.0121394
-0.0121599
-0.0121801
-0.0122
-0.0122196
-0.0122389
-0.0122578
-0.0122765
-0.0122949
-0.012313
-0.0123307
-0.0123482
-0.0123653
-0.0123821
-0.0123986
-0.0124148
-0.0124306
-0.0124461
-0.0124613
-0.0124762
-0.0124907
-0.0125049
-0.0125188
-0.0125323
-0.0125456
-0.0125585
-0.0125711
-0.0125833
-0.0125953
-0.0126069
-0.0126182
-0.0126292
-0.0126399
-0.0126503
-0.0126604
-0.0126702
-0.0126796
-0.0126888
-0.0126978
-0.0127064
-0.0112524
-0.0112548
-0.0112595
-0.0112662
-0.0112749
-0.0112853
-0.0112974
-0.0113109
-0.0113258
-0.0113418
-0.011359
-0.0113772
-0.0113963
-0.0114162
-0.0114368
-0.011458
-0.0114798
-0.011502
-0.0115247
-0.0115476
-0.0115709
-0.0115944
-0.011618
-0.0116418
-0.0116656
-0.0116895
-0.0117133
-0.0117372
-0.0117609
-0.0117846
-0.0118082
-0.0118316
-0.0118549
-0.011878
-0.0119009
-0.0119236
-0.0119461
-0.0119684
-0.0119904
-0.0120121
-0.0120337
-0.0120549
-0.0120759
-0.0120967
-0.0121171
-0.0121373
-0.0121572
-0.0121768
-0.0121961
-0.0122151
-0.0122339
-0.0122523
-0.0122705
-0.0122883
-0.0123058
-0.0123231
-0.01234
-0.0123566
-0.0123729
-0.0123889
-0.0124046
-0.0124199
-0.012435
-0.0124497
-0.0124642
-0.0124783
-0.012492
-0.0125055
-0.0125187
-0.0125315
-0.012544
-0.0125562
-0.0125681
-0.0125797
-0.012591
-0.012602
-0.0126127
-0.012623
-0.0126331
-0.0126429
-0.0126524
-0.0126616
-0.0126705
-0.0126791
-0.0112377
-0.0112401
-0.0112448
-0.0112515
-0.0112602
-0.0112706
-0.0112826
-0.011296
-0.0113108
-0.0113268
-0.0113439
-0.011362
-0.011381
-0.0114008
-0.0114213
-0.0114424
-0.0114641
-0.0114862
-0.0115087
-0.0115315
-0.0115546
-0.0115779
-0.0116014
-0.011625
-0.0116486
-0.0116723
-0.011696
-0.0117196
-0.0117431
-0.0117666
-0.0117899
-0.0118131
-0.0118361
-0.0118589
-0.0118815
-0.011904
-0.0119262
-0.0119481
-0.0119698
-0.0119913
-0.0120125
-0.0120335
-0.0120542
-0.0120746
-0.0120947
-0.0121146
-0.0121342
-0.0121535
-0.0121725
-0.0121913
-0.0122097
-0.0122279
-0.0122458
-0.0122634
-0.0122806
-0.0122976
-0.0123143
-0.0123308
-0.0123469
-0.0123627
-0.0123782
-0.0123934
-0.0124083
-0.0124229
-0.0124372
-0.0124511
-0.0124648
-0.0124782
-0.0124912
-0.012504
-0.0125165
-0.0125286
-0.0125404
-0.012552
-0.0125632
-0.0125741
-0.0125848
-0.0125951
-0.0126052
-0.0126149
-0.0126244
-0.0126336
-0.0126425
-0.0126512
-0.0112231
-0.0112255
-0.0112301
-0.0112368
-0.0112454
-0.0112558
-0.0112677
-0.0112811
-0.0112958
-0.0113118
-0.0113288
-0.0113468
-0.0113657
-0.0113854
-0.0114058
-0.0114268
-0.0114484
-0.0114704
-0.0114927
-0.0115154
-0.0115384
-0.0115616
-0.0115849
-0.0116083
-0.0116318
-0.0116552
-0.0116787
-0.0117021
-0.0117254
-0.0117487
-0.0117717
-0.0117947
-0.0118174
-0.01184
-0.0118623
-0.0118844
-0.0119063
-0.011928
-0.0119494
-0.0119705
-0.0119914
-0.0120121
-0.0120324
-0.0120525
-0.0120724
-0.0120919
-0.0121112
-0.0121302
-0.0121489
-0.0121673
-0.0121855
-0.0122034
-0.012221
-0.0122383
-0.0122553
-0.012272
-0.0122885
-0.0123047
-0.0123206
-0.0123361
-0.0123515
-0.0123665
-0.0123812
-0.0123956
-0.0124098
-0.0124236
-0.0124372
-0.0124504
-0.0124634
-0.012476
-0.0124884
-0.0125005
-0.0125122
-0.0125237
-0.0125349
-0.0125458
-0.0125564
-0.0125667
-0.0125768
-0.0125865
-0.012596
-0.0126051
-0.012614
-0.0126227
-0.0112085
-0.0112109
-0.0112155
-0.0112222
-0.0112308
-0.011241
-0.0112529
-0.0112663
-0.0112809
-0.0112968
-0.0113137
-0.0113317
-0.0113505
-0.0113701
-0.0113904
-0.0114113
-0.0114328
-0.0114546
-0.0114769
-0.0114995
-0.0115223
-0.0115453
-0.0115685
-0.0115917
-0.011615
-0.0116383
-0.0116616
-0.0116848
-0.0117079
-0.0117309
-0.0117537
-0.0117764
-0.0117989
-0.0118212
-0.0118432
-0.0118651
-0.0118867
-0.011908
-0.0119291
-0.01195
-0.0119705
-0.0119908
-0.0120109
-0.0120306
-0.0120501
-0.0120693
-0.0120883
-0.0121069
-0.0121253
-0.0121434
-0.0121613
-0.0121788
-0.0121961
-0.0122131
-0.0122299
-0.0122463
-0.0122625
-0.0122784
-0.0122941
-0.0123094
-0.0123245
-0.0123393
-0.0123539
-0.0123681
-0.0123821
-0.0123958
-0.0124092
-0.0124223
-0.0124351
-0.0124477
-0.0124599
-0.0124719
-0.0124836
-0.012495
-0.0125062
-0.012517
-0.0125276
-0.0125378
-0.0125478
-0.0125575
-0.012567
-0.0125761
-0.012585
-0.0125937
-0.011194
-0.0111964
-0.011201
-0.0112076
-0.0112162
-0.0112264
-0.0112382
-0.0112515
-0.0112661
-0.0112819
-0.0112988
-0.0113166
-0.0113354
-0.0113549
-0.0113751
-0.0113959
-0.0114173
-0.011439
-0.0114612
-0.0114836
-0.0115063
-0.0115292
-0.0115522
-0.0115753
-0.0115985
-0.0116216
-0.0116447
-0.0116677
-0.0116906
-0.0117133
-0.0117359
-0.0117584
-0.0117806
-0.0118026
-0.0118244
-0.011846
-0.0118673
-0.0118883
-0.0119091
-0.0119296
-0.0119499
-0.0119698
-0.0119895
-0.012009
-0.0120281
-0.012047
-0.0120655
-0.0120839
-0.0121019
-0.0121197
-0.0121372
-0.0121544
-0.0121713
-0.012188
-0.0122045
-0.0122206
-0.0122365
-0.0122522
-0.0122675
-0.0122826
-0.0122975
-0.012312
-0.0123264
-0.0123404
-0.0123542
-0.0123677
-0.0123809
-0.0123939
-0.0124066
-0.012419
-0.0124312
-0.012443
-0.0124546
-0.012466
-0.012477
-0.0124878
-0.0124983
-0.0125085
-0.0125185
-0.0125282
-0.0125376
-0.0125467
-0.0125556
-0.0125642
-0.0111796
-0.011182
-0.0111866
-0.0111932
-0.0112017
-0.0112119
-0.0112237
-0.0112369
-0.0112514
-0.0112671
-0.011284
-0.0113017
-0.0113204
-0.0113399
-0.01136
-0.0113807
-0.0114019
-0.0114236
-0.0114457
-0.011468
-0.0114906
-0.0115133
-0.0115362
-0.0115591
-0.0115821
-0.0116051
-0.011628
-0.0116508
-0.0116735
-0.011696
-0.0117184
-0.0117406
-0.0117626
-0.0117844
-0.0118059
-0.0118272
-0.0118482
-0.0118689
-0.0118894
-0.0119096
-0.0119295
-0.0119491
-0.0119685
-0.0119876
-0.0120063
-0.0120249
-0.0120431
-0.012061
-0.0120787
-0.0120961
-0.0121133
-0.0121301
-0.0121467
-0.0121631
-0.0121792
-0.012195
-0.0122106
-0.0122259
-0.012241
-0.0122558
-0.0122704
-0.0122847
-0.0122988
-0.0123126
-0.0123261
-0.0123394
-0.0123525
-0.0123653
-0.0123778
-0.0123901
-0.0124021
-0.0124139
-0.0124254
-0.0124366
-0.0124476
-0.0124583
-0.0124687
-0.0124789
-0.0124888
-0.0124984
-0.0125078
-0.0125169
-0.0125258
-0.0125344
-0.0111654
-0.0111678
-0.0111723
-0.0111789
-0.0111874
-0.0111975
-0.0112092
-0.0112224
-0.0112369
-0.0112525
-0.0112693
-0.011287
-0.0113056
-0.011325
-0.011345
-0.0113657
-0.0113868
-0.0114084
-0.0114303
-0.0114526
-0.011475
-0.0114977
-0.0115204
-0.0115432
-0.011566
-0.0115888
-0.0116116
-0.0116342
-0.0116567
-0.0116791
-0.0117012
-0.0117232
-0.0117449
-0.0117664
-0.0117877
-0.0118087
-0.0118294
-0.0118499
-0.01187
-0.0118899
-0.0119095
-0.0119288
-0.0119478
-0.0119665
-0.011985
-0.0120031
-0.012021
-0.0120385
-0.0120558
-0.0120729
-0.0120896
-0.0121061
-0.0121224
-0.0121384
-0.0121541
-0.0121696
-0.0121848
-0.0121998
-0.0122146
-0.0122291
-0.0122433
-0.0122574
-0.0122712
-0.0122847
-0.012298
-0.0123111
-0.012324
-0.0123365
-0.0123489
-0.012361
-0.0123729
-0.0123845
-0.0123959
-0.012407
-0.0124178
-0.0124284
-0.0124388
-0.0124489
-0.0124588
-0.0124684
-0.0124777
-0.0124868
-0.0124956
-0.0125042
-0.0111514
-0.0111537
-0.0111583
-0.0111648
-0.0111732
-0.0111833
-0.011195
-0.0112081
-0.0112225
-0.0112382
-0.0112548
-0.0112725
-0.011291
-0.0113103
-0.0113303
-0.0113508
-0.0113719
-0.0113934
-0.0114153
-0.0114374
-0.0114598
-0.0114823
-0.0115049
-0.0115276
-0.0115503
-0.0115729
-0.0115955
-0.011618
-0.0116403
-0.0116624
-0.0116844
-0.0117061
-0.0117277
-0.0117489
-0.0117699
-0.0117907
-0.0118111
-0.0118313
-0.0118511
-0.0118707
-0.0118899
-0.0119089
-0.0119276
-0.0119459
-0.011964
-0.0119818
-0.0119993
-0.0120165
-0.0120334
-0.01205
-0.0120664
-0.0120825
-0.0120984
-0.012114
-0.0121293
-0.0121444
-0.0121593
-0.0121739
-0.0121883
-0.0122025
-0.0122164
-0.0122302
-0.0122436
-0.0122569
-0.01227
-0.0122828
-0.0122954
-0.0123077
-0.0123199
-0.0123318
-0.0123435
-0.0123549
-0.0123661
-0.0123771
-0.0123879
-0.0123984
-0.0124086
-0.0124187
-0.0124284
-0.012438
-0.0124473
-0.0124563
-0.0124651
-0.0124737
-0.0111376
-0.0111399
-0.0111444
-0.0111509
-0.0111593
-0.0111694
-0.011181
-0.0111941
-0.0112084
-0.011224
-0.0112406
-0.0112582
-0.0112767
-0.0112959
-0.0113158
-0.0113363
-0.0113573
-0.0113787
-0.0114005
-0.0114225
-0.0114448
-0.0114672
-0.0114897
-0.0115123
-0.0115348
-0.0115573
-0.0115798
-0.0116021
-0.0116242
-0.0116462
-0.0116679
-0.0116895
-0.0117108
-0.0117318
-0.0117526
-0.011773
-0.0117932
-0.0118131
-0.0118326
-0.0118519
-0.0118708
-0.0118895
-0.0119078
-0.0119258
-0.0119435
-0.0119609
-0.011978
-0.0119948
-0.0120114
-0.0120276
-0.0120436
-0.0120593
-0.0120748
-0.01209
-0.0121049
-0.0121196
-0.0121341
-0.0121483
-0.0121624
-0.0121762
-0.0121897
-0.0122031
-0.0122163
-0.0122292
-0.012242
-0.0122545
-0.0122668
-0.0122789
-0.0122908
-0.0123025
-0.012314
-0.0123253
-0.0123363
-0.0123471
-0.0123578
-0.0123681
-0.0123783
-0.0123882
-0.0123979
-0.0124074
-0.0124166
-0.0124256
-0.0124344
-0.0124429
-0.011124
-0.0111263
-0.0111308
-0.0111373
-0.0111456
-0.0111557
-0.0111672
-0.0111803
-0.0111946
-0.0112101
-0.0112266
-0.0112442
-0.0112626
-0.0112817
-0.0113016
-0.011322
-0.0113429
-0.0113642
-0.0113859
-0.0114079
-0.0114301
-0.0114524
-0.0114748
-0.0114973
-0.0115197
-0.0115421
-0.0115644
-0.0115865
-0.0116085
-0.0116303
-0.0116519
-0.0116733
-0.0116943
-0.0117151
-0.0117357
-0.0117559
-0.0117758
-0.0117954
-0.0118147
-0.0118336
-0.0118523
-0.0118706
-0.0118886
-0.0119062
-0.0119236
-0.0119406
-0.0119573
-0.0119738
-0.0119899
-0.0120058
-0.0120213
-0.0120366
-0.0120516
-0.0120664
-0.012081
-0.0120952
-0.0121093
-0.0121231
-0.0121368
-0.0121502
-0.0121634
-0.0121763
-0.0121891
-0.0122017
-0.0122141
-0.0122263
-0.0122384
-0.0122502
-0.0122618
-0.0122733
-0.0122845
-0.0122956
-0.0123064
-0.0123171
-0.0123275
-0.0123377
-0.0123478
-0.0123576
-0.0123672
-0.0123765
-0.0123857
-0.0123946
-0.0124034
-0.0124118
-0.0111107
-0.011113
-0.0111175
-0.0111239
-0.0111322
-0.0111422
-0.0111537
-0.0111667
-0.011181
-0.0111964
-0.0112129
-0.0112304
-0.0112487
-0.0112678
-0.0112876
-0.011308
-0.0113288
-0.0113501
-0.0113717
-0.0113936
-0.0114157
-0.0114379
-0.0114603
-0.0114826
-0.0115049
-0.0115272
-0.0115494
-0.0115714
-0.0115932
-0.0116149
-0.0116363
-0.0116575
-0.0116783
-0.0116989
-0.0117192
-0.0117392
-0.0117589
-0.0117782
-0.0117972
-0.0118159
-0.0118342
-0.0118522
-0.0118699
-0.0118872
-0.0119042
-0.0119209
-0.0119372
-0.0119533
-0.011969
-0.0119845
-0.0119996
-0.0120145
-0.0120291
-0.0120434
-0.0120575
-0.0120714
-0.012085
-0.0120984
-0.0121116
-0.0121246
-0.0121373
-0.0121499
-0.0121623
-0.0121745
-0.0121866
-0.0121984
-0.0122101
-0.0122216
-0.0122329
-0.0122441
-0.0122551
-0.0122659
-0.0122765
-0.0122869
-0.0122972
-0.0123072
-0.0123171
-0.0123268
-0.0123363
-0.0123455
-0.0123546
-0.0123635
-0.0123721
-0.0123806
-0.0110976
-0.0110999
-0.0111044
-0.0111108
-0.0111191
-0.011129
-0.0111405
-0.0111534
-0.0111676
-0.011183
-0.0111995
-0.0112169
-0.0112352
-0.0112542
-0.0112739
-0.0112942
-0.011315
-0.0113363
-0.0113578
-0.0113796
-0.0114017
-0.0114238
-0.0114461
-0.0114683
-0.0114906
-0.0115127
-0.0115348
-0.0115567
-0.0115784
-0.0115999
-0.0116211
-0.0116421
-0.0116628
-0.0116832
-0.0117033
-0.0117231
-0.0117425
-0.0117616
-0.0117803
-0.0117987
-0.0118168
-0.0118345
-0.0118518
-0.0118688
-0.0118855
-0.0119018
-0.0119178
-0.0119334
-0.0119488
-0.0119638
-0.0119786
-0.011993
-0.0120072
-0.0120211
-0.0120347
-0.0120481
-0.0120613
-0.0120742
-0.012087
-0.0120995
-0.0121118
-0.012124
-0.0121359
-0.0121477
-0.0121593
-0.0121708
-0.0121821
-0.0121932
-0.0122042
-0.012215
-0.0122257
-0.0122362
-0.0122466
-0.0122568
-0.0122668
-0.0122767
-0.0122863
-0.0122959
-0.0123052
-0.0123143
-0.0123233
-0.0123321
-0.0123407
-0.012349
-0.0110849
-0.0110871
-0.0110916
-0.011098
-0.0111062
-0.0111161
-0.0111276
-0.0111404
-0.0111546
-0.0111699
-0.0111863
-0.0112037
-0.0112219
-0.0112409
-0.0112606
-0.0112808
-0.0113016
-0.0113228
-0.0113443
-0.011366
-0.011388
-0.0114101
-0.0114322
-0.0114544
-0.0114766
-0.0114986
-0.0115206
-0.0115424
-0.011564
-0.0115853
-0.0116064
-0.0116272
-0.0116478
-0.011668
-0.0116879
-0.0117074
-0.0117266
-0.0117455
-0.011764
-0.0117821
-0.0117999
-0.0118173
-0.0118343
-0.011851
-0.0118673
-0.0118833
-0.011899
-0.0119142
-0.0119292
-0.0119439
-0.0119582
-0.0119722
-0.011986
-0.0119994
-0.0120126
-0.0120256
-0.0120383
-0.0120507
-0.012063
-0.012075
-0.0120869
-0.0120985
-0.01211
-0.0121213
-0.0121325
-0.0121435
-0.0121544
-0.0121651
-0.0121757
-0.0121862
-0.0121965
-0.0122067
-0.0122168
-0.0122267
-0.0122364
-0.0122461
-0.0122555
-0.0122649
-0.012274
-0.012283
-0.0122919
-0.0123005
-0.012309
-0.0123173
-0.0110724
-0.0110747
-0.0110791
-0.0110855
-0.0110937
-0.0111035
-0.0111149
-0.0111277
-0.0111418
-0.0111571
-0.0111735
-0.0111908
-0.011209
-0.0112279
-0.0112476
-0.0112678
-0.0112885
-0.0113096
-0.011331
-0.0113528
-0.0113747
-0.0113967
-0.0114188
-0.0114409
-0.011463
-0.011485
-0.0115068
-0.0115285
-0.01155
-0.0115712
-0.0115922
-0.0116128
-0.0116332
-0.0116533
-0.011673
-0.0116923
-0.0117113
-0.01173
-0.0117482
-0.0117661
-0.0117836
-0.0118007
-0.0118175
-0.0118339
-0.0118499
-0.0118655
-0.0118808
-0.0118958
-0.0119104
-0.0119246
-0.0119386
-0.0119522
-0.0119655
-0.0119785
-0.0119912
-0.0120037
-0.0120159
-0.0120279
-0.0120397
-0.0120512
-0.0120626
-0.0120737
-0.0120847
-0.0120956
-0.0121062
-0.0121168
-0.0121272
-0.0121375
-0.0121476
-0.0121577
-0.0121676
-0.0121774
-0.0121871
-0.0121967
-0.0122061
-0.0122155
-0.0122247
-0.0122338
-0.0122428
-0.0122516
-0.0122602
-0.0122688
-0.0122771
-0.0122853
-0.0110602
-0.0110625
-0.0110669
-0.0110732
-0.0110814
-0.0110912
-0.0111026
-0.0111154
-0.0111294
-0.0111447
-0.011161
-0.0111782
-0.0111964
-0.0112153
-0.0112349
-0.011255
-0.0112757
-0.0112968
-0.0113182
-0.0113398
-0.0113617
-0.0113837
-0.0114057
-0.0114278
-0.0114498
-0.0114717
-0.0114935
-0.011515
-0.0115364
-0.0115575
-0.0115784
-0.0115989
-0.0116192
-0.0116391
-0.0116586
-0.0116778
-0.0116966
-0.011715
-0.011733
-0.0117507
-0.011768
-0.0117848
-0.0118013
-0.0118174
-0.0118331
-0.0118485
-0.0118634
-0.011878
-0.0118923
-0.0119061
-0.0119197
-0.0119329
-0.0119458
-0.0119584
-0.0119707
-0.0119827
-0.0119944
-0.0120059
-0.0120171
-0.0120282
-0.012039
-0.0120496
-0.0120601
-0.0120704
-0.0120805
-0.0120906
-0.0121005
-0.0121102
-0.0121199
-0.0121295
-0.012139
-0.0121484
-0.0121577
-0.0121669
-0.012176
-0.012185
-0.0121939
-0.0122027
-0.0122114
-0.01222
-0.0122285
-0.0122369
-0.0122451
-0.0122532
-0.0110484
-0.0110506
-0.011055
-0.0110613
-0.0110695
-0.0110793
-0.0110906
-0.0111033
-0.0111173
-0.0111325
-0.0111488
-0.011166
-0.0111841
-0.011203
-0.0112225
-0.0112426
-0.0112632
-0.0112843
-0.0113057
-0.0113273
-0.0113491
-0.011371
-0.011393
-0.011415
-0.011437
-0.0114588
-0.0114805
-0.011502
-0.0115233
-0.0115443
-0.0115651
-0.0115855
-0.0116056
-0.0116253
-0.0116447
-0.0116637
-0.0116824
-0.0117006
-0.0117184
-0.0117359
-0.0117529
-0.0117695
-0.0117858
-0.0118016
-0.0118171
-0.0118321
-0.0118468
-0.011861
-0.0118749
-0.0118885
-0.0119016
-0.0119145
-0.0119269
-0.0119391
-0.0119509
-0.0119625
-0.0119737
-0.0119847
-0.0119955
-0.012006
-0.0120163
-0.0120263
-0.0120363
-0.012046
-0.0120556
-0.012065
-0.0120744
-0.0120836
-0.0120928
-0.0121018
-0.0121108
-0.0121197
-0.0121285
-0.0121373
-0.012146
-0.0121546
-0.0121632
-0.0121717
-0.0121801
-0.0121884
-0.0121966
-0.0122048
-0.0122128
-0.0122207
-0.0110369
-0.0110391
-0.0110435
-0.0110498
-0.0110579
-0.0110676