/*--------------------------------*- C++ -*----------------------------------*\
  =========                 |
  \\      /  F ield         | OpenFOAM: The Open Source CFD Toolbox
   \\    /   O peration     | Website:  https://openfoam.org
    \\  /    A nd           | Version:  10
     \\/     M anipulation  |
\*---------------------------------------------------------------------------*/
FoamFile
{
    format      ascii;
    class       volScalarField;
    location    "0";
    object      p_d6;
}
// * * * * * * * * * * * * * * * * * * * * * * * * * * * * * * * * * * * * * //

dimensions      [0 2 -2 0 0 0 0];

internalField   nonuniform List<scalar> 
84253
(
0.0509094
0.050918
0.0509345
0.0509583
0.0509889
0.0510256
0.0510679
0.0511153
0.0511674
0.0512238
0.051284
0.0513476
0.0514143
0.0514837
0.0515556
0.0516296
0.0517054
0.0517828
0.0518615
0.0519413
0.052022
0.0521034
0.0521853
0.0522675
0.0523498
0.0524322
0.0525144
0.0525964
0.0526779
0.052759
0.0528395
0.0529192
0.0529982
0.0530764
0.0531536
0.0532299
0.0533051
0.0533792
0.0534521
0.0535239
0.0535945
0.0536638
0.0537319
0.0537987
0.0538641
0.0539283
0.0539911
0.0540526
0.0541127
0.0541715
0.0542289
0.054285
0.0543397
0.0543932
0.0544453
0.0544961
0.0545456
0.0545938
0.0546407
0.0546864
0.0547308
0.054774
0.054816
0.0548568
0.0548964
0.0549349
0.0549723
0.0550085
0.0550437
0.0550778
0.0551109
0.0551429
0.0551739
0.0552039
0.055233
0.0552611
0.0552883
0.0553146
0.05534
0.0553646
0.0553883
0.0554112
0.0554333
0.0554546
0.0509052
0.0509138
0.0509303
0.0509541
0.0509847
0.0510213
0.0510637
0.0511111
0.0511632
0.0512196
0.0512797
0.0513434
0.0514101
0.0514795
0.0515514
0.0516253
0.0517011
0.0517785
0.0518573
0.0519371
0.0520178
0.0520992
0.0521811
0.0522633
0.0523457
0.052428
0.0525103
0.0525923
0.0526738
0.0527549
0.0528354
0.0529153
0.0529943
0.0530725
0.0531498
0.053226
0.0533013
0.0533754
0.0534484
0.0535203
0.0535909
0.0536603
0.0537284
0.0537952
0.0538607
0.0539249
0.0539877
0.0540492
0.0541094
0.0541682
0.0542257
0.0542818
0.0543366
0.0543901
0.0544422
0.054493
0.0545426
0.0545908
0.0546378
0.0546835
0.0547279
0.0547712
0.0548132
0.0548541
0.0548937
0.0549323
0.0549697
0.0550059
0.0550411
0.0550753
0.0551083
0.0551404
0.0551714
0.0552015
0.0552306
0.0552587
0.0552859
0.0553122
0.0553377
0.0553622
0.055386
0.0554089
0.055431
0.0554524
0.0508912
0.0508998
0.0509163
0.0509401
0.0509707
0.0510073
0.0510496
0.0510971
0.0511492
0.0512055
0.0512657
0.0513293
0.051396
0.0514654
0.0515373
0.0516112
0.0516871
0.0517645
0.0518432
0.0519231
0.0520038
0.0520852
0.0521671
0.0522494
0.0523318
0.0524142
0.0524965
0.0525785
0.0526601
0.0527413
0.0528219
0.0529018
0.0529809
0.0530591
0.0531365
0.0532128
0.0532882
0.0533624
0.0534355
0.0535074
0.0535781
0.0536476
0.0537158
0.0537827
0.0538483
0.0539126
0.0539755
0.0540371
0.0540974
0.0541563
0.0542138
0.05427
0.0543249
0.0543784
0.0544307
0.0544816
0.0545312
0.0545795
0.0546265
0.0546723
0.0547168
0.0547601
0.0548022
0.054843
0.0548828
0.0549213
0.0549588
0.0549951
0.0550303
0.0550645
0.0550976
0.0551297
0.0551608
0.0551909
0.05522
0.0552482
0.0552755
0.0553018
0.0553273
0.0553519
0.0553757
0.0553987
0.0554209
0.0554423
0.0508684
0.050877
0.0508935
0.0509173
0.0509478
0.0509845
0.0510268
0.0510742
0.0511263
0.0511826
0.0512428
0.0513064
0.0513731
0.0514426
0.0515144
0.0515884
0.0516643
0.0517417
0.0518205
0.0519003
0.0519811
0.0520626
0.0521446
0.0522269
0.0523093
0.0523918
0.0524742
0.0525563
0.0526381
0.0527194
0.0528
0.05288
0.0529593
0.0530377
0.0531152
0.0531917
0.0532672
0.0533416
0.0534148
0.0534869
0.0535578
0.0536274
0.0536958
0.0537629
0.0538287
0.0538932
0.0539563
0.0540181
0.0540785
0.0541376
0.0541954
0.0542518
0.0543069
0.0543606
0.0544131
0.0544642
0.054514
0.0545625
0.0546097
0.0546557
0.0547004
0.054744
0.0547863
0.0548274
0.0548673
0.0549061
0.0549438
0.0549803
0.0550158
0.0550501
0.0550835
0.0551158
0.0551471
0.0551774
0.0552067
0.0552351
0.0552626
0.0552891
0.0553148
0.0553396
0.0553635
0.0553866
0.0554089
0.0554305
0.0508422
0.0508508
0.0508673
0.0508911
0.0509216
0.0509583
0.0510006
0.051048
0.0511001
0.0511564
0.0512166
0.0512802
0.0513469
0.0514163
0.0514882
0.0515622
0.0516381
0.0517155
0.0517943
0.0518743
0.0519551
0.0520366
0.0521187
0.052201
0.0522836
0.0523662
0.0524487
0.0525309
0.0526128
0.0526942
0.052775
0.0528552
0.0529346
0.0530131
0.0530908
0.0531675
0.0532432
0.0533178
0.0533912
0.0534635
0.0535346
0.0536045
0.0536731
0.0537404
0.0538064
0.0538711
0.0539345
0.0539965
0.0540572
0.0541165
0.0541745
0.0542312
0.0542865
0.0543405
0.0543931
0.0544445
0.0544945
0.0545432
0.0545907
0.0546369
0.0546819
0.0547256
0.0547681
0.0548094
0.0548496
0.0548886
0.0549264
0.0549631
0.0549988
0.0550333
0.0550668
0.0550993
0.0551307
0.0551612
0.0551906
0.0552191
0.0552467
0.0552734
0.0552992
0.0553241
0.0553481
0.0553713
0.0553938
0.0554154
0.0508115
0.0508201
0.0508366
0.0508604
0.0508909
0.0509275
0.0509698
0.0510172
0.0510693
0.0511256
0.0511858
0.0512494
0.0513161
0.0513855
0.0514574
0.0515314
0.0516073
0.0516848
0.0517637
0.0518436
0.0519245
0.0520061
0.0520882
0.0521707
0.0522533
0.052336
0.0524186
0.052501
0.052583
0.0526646
0.0527455
0.0528259
0.0529055
0.0529842
0.0530621
0.053139
0.0532149
0.0532897
0.0533634
0.0534359
0.0535073
0.0535774
0.0536462
0.0537138
0.0537801
0.053845
0.0539087
0.053971
0.0540319
0.0540915
0.0541498
0.0542067
0.0542623
0.0543165
0.0543694
0.054421
0.0544713
0.0545203
0.054568
0.0546145
0.0546597
0.0547036
0.0547464
0.0547879
0.0548283
0.0548675
0.0549055
0.0549424
0.0549783
0.055013
0.0550467
0.0550793
0.055111
0.0551416
0.0551712
0.0551999
0.0552277
0.0552545
0.0552804
0.0553055
0.0553297
0.055353
0.0553756
0.0553973
0.0507764
0.050785
0.0508015
0.0508253
0.0508558
0.0508924
0.0509347
0.0509821
0.0510341
0.0510905
0.0511506
0.0512142
0.0512809
0.0513503
0.0514222
0.0514963
0.0515722
0.0516497
0.0517286
0.0518086
0.0518895
0.0519712
0.0520534
0.052136
0.0522187
0.0523015
0.0523842
0.0524668
0.0525489
0.0526306
0.0527118
0.0527923
0.0528721
0.0529511
0.0530292
0.0531063
0.0531825
0.0532575
0.0533315
0.0534043
0.0534759
0.0535463
0.0536155
0.0536834
0.0537499
0.0538152
0.0538791
0.0539417
0.054003
0.0540629
0.0541215
0.0541787
0.0542346
0.0542892
0.0543424
0.0543943
0.0544449
0.0544941
0.0545422
0.0545889
0.0546344
0.0546786
0.0547216
0.0547634
0.054804
0.0548435
0.0548818
0.054919
0.054955
0.05499
0.0550239
0.0550568
0.0550886
0.0551195
0.0551493
0.0551782
0.0552062
0.0552332
0.0552593
0.0552845
0.0553089
0.0553324
0.0553551
0.055377
0.0507381
0.0507467
0.0507632
0.0507869
0.0508174
0.050854
0.0508963
0.0509436
0.0509957
0.051052
0.0511121
0.0511757
0.0512424
0.0513119
0.0513838
0.0514578
0.0515337
0.0516113
0.0516902
0.0517703
0.0518512
0.051933
0.0520153
0.0520979
0.0521808
0.0522637
0.0523466
0.0524292
0.0525116
0.0525935
0.0526748
0.0527555
0.0528355
0.0529148
0.0529931
0.0530705
0.0531469
0.0532223
0.0532965
0.0533696
0.0534415
0.0535123
0.0535817
0.0536499
0.0537168
0.0537824
0.0538467
0.0539096
0.0539712
0.0540315
0.0540904
0.054148
0.0542042
0.0542591
0.0543126
0.0543649
0.0544158
0.0544654
0.0545137
0.0545608
0.0546066
0.0546511
0.0546944
0.0547365
0.0547774
0.0548171
0.0548557
0.0548932
0.0549295
0.0549647
0.0549989
0.055032
0.0550641
0.0550951
0.0551252
0.0551543
0.0551824
0.0552096
0.0552359
0.0552614
0.0552859
0.0553096
0.0553325
0.0553546
0.0506968
0.0507054
0.0507219
0.0507456
0.0507761
0.0508127
0.0508549
0.0509023
0.0509543
0.0510106
0.0510707
0.0511343
0.051201
0.0512704
0.0513423
0.0514164
0.0514923
0.0515699
0.0516488
0.0517289
0.05181
0.0518918
0.0519741
0.0520569
0.0521398
0.0522229
0.0523059
0.0523887
0.0524712
0.0525533
0.0526348
0.0527158
0.052796
0.0528755
0.0529541
0.0530317
0.0531084
0.0531841
0.0532586
0.053332
0.0534043
0.0534753
0.0535452
0.0536137
0.053681
0.0537469
0.0538116
0.0538749
0.0539368
0.0539975
0.0540567
0.0541147
0.0541713
0.0542265
0.0542804
0.054333
0.0543843
0.0544342
0.0544829
0.0545303
0.0545764
0.0546212
0.0546649
0.0547073
0.0547485
0.0547885
0.0548274
0.0548651
0.0549017
0.0549372
0.0549717
0.055005
0.0550373
0.0550686
0.0550989
0.0551283
0.0551566
0.0551841
0.0552106
0.0552362
0.0552609
0.0552848
0.0553079
0.0553301
0.050653
0.0506616
0.050678
0.0507018
0.0507322
0.0507688
0.050811
0.0508583
0.0509103
0.0509666
0.0510267
0.0510902
0.0511569
0.0512263
0.0512982
0.0513723
0.0514483
0.0515258
0.0516048
0.051685
0.0517661
0.0518479
0.0519303
0.0520132
0.0520963
0.0521794
0.0522626
0.0523455
0.0524282
0.0525104
0.0525922
0.0526733
0.0527538
0.0528335
0.0529124
0.0529903
0.0530673
0.0531433
0.0532181
0.0532919
0.0533645
0.0534359
0.053506
0.053575
0.0536426
0.0537089
0.0537739
0.0538376
0.0539
0.053961
0.0540207
0.054079
0.054136
0.0541916
0.0542459
0.0542989
0.0543505
0.0544009
0.0544499
0.0544976
0.0545441
0.0545893
0.0546333
0.054676
0.0547176
0.0547579
0.0547971
0.0548352
0.0548721
0.0549079
0.0549426
0.0549762
0.0550088
0.0550404
0.0550709
0.0551005
0.0551291
0.0551568
0.0551835
0.0552093
0.0552343
0.0552584
0.0552817
0.0553041
0.050607
0.0506156
0.0506321
0.0506558
0.0506862
0.0507228
0.0507649
0.0508122
0.0508642
0.0509204
0.0509805
0.0510441
0.0511107
0.0511801
0.051252
0.0513261
0.051402
0.0514796
0.0515586
0.0516388
0.0517199
0.0518018
0.0518843
0.0519672
0.0520504
0.0521337
0.0522169
0.0523
0.0523829
0.0524653
0.0525473
0.0526286
0.0527093
0.0527893
0.0528684
0.0529466
0.0530239
0.0531002
0.0531754
0.0532495
0.0533224
0.0533942
0.0534647
0.053534
0.053602
0.0536688
0.0537342
0.0537983
0.0538611
0.0539225
0.0539826
0.0540413
0.0540987
0.0541547
0.0542094
0.0542628
0.0543149
0.0543656
0.054415
0.0544631
0.05451
0.0545556
0.0545999
0.054643
0.0546849
0.0547256
0.0547651
0.0548035
0.0548407
0.0548768
0.0549118
0.0549457
0.0549786
0.0550105
0.0550413
0.0550711
0.0551
0.0551279
0.0551549
0.0551809
0.0552061
0.0552304
0.0552539
0.0552765
0.0505593
0.0505679
0.0505843
0.050608
0.0506384
0.050675
0.0507171
0.0507644
0.0508163
0.0508725
0.0509326
0.0509961
0.0510627
0.0511321
0.0512039
0.051278
0.0513539
0.0514315
0.0515105
0.0515907
0.0516719
0.0517539
0.0518364
0.0519194
0.0520027
0.052086
0.0521694
0.0522527
0.0523356
0.0524182
0.0525004
0.052582
0.0526629
0.0527431
0.0528225
0.052901
0.0529786
0.0530551
0.0531307
0.0532051
0.0532784
0.0533505
0.0534215
0.0534911
0.0535596
0.0536267
0.0536925
0.0537571
0.0538203
0.0538821
0.0539426
0.0540018
0.0540596
0.0541161
0.0541712
0.054225
0.0542775
0.0543286
0.0543784
0.054427
0.0544742
0.0545202
0.0545649
0.0546084
0.0546507
0.0546917
0.0547316
0.0547703
0.0548079
0.0548443
0.0548796
0.0549139
0.054947
0.0549792
0.0550103
0.0550404
0.0550695
0.0550977
0.0551249
0.0551512
0.0551766
0.0552012
0.0552249
0.0552477
0.0505101
0.0505187
0.0505351
0.0505588
0.0505892
0.0506257
0.0506678
0.0507151
0.050767
0.0508231
0.0508831
0.0509466
0.0510132
0.0510826
0.0511544
0.0512284
0.0513044
0.0513819
0.051461
0.0515412
0.0516224
0.0517043
0.0517869
0.05187
0.0519533
0.0520368
0.0521203
0.0522036
0.0522868
0.0523695
0.0524518
0.0525336
0.0526148
0.0526952
0.0527748
0.0528536
0.0529315
0.0530084
0.0530842
0.053159
0.0532327
0.0533052
0.0533765
0.0534466
0.0535154
0.053583
0.0536492
0.0537142
0.0537778
0.0538401
0.0539011
0.0539607
0.0540189
0.0540759
0.0541314
0.0541857
0.0542386
0.0542901
0.0543404
0.0543893
0.054437
0.0544834
0.0545285
0.0545724
0.054615
0.0546565
0.0546967
0.0547358
0.0547737
0.0548105
0.0548461
0.0548807
0.0549142
0.0549466
0.054978
0.0550084
0.0550378
0.0550663
0.0550938
0.0551203
0.055146
0.0551708
0.0551947
0.0552178
0.0504598
0.0504684
0.0504848
0.0505085
0.0505388
0.0505753
0.0506174
0.0506646
0.0507165
0.0507726
0.0508325
0.050896
0.0509625
0.0510319
0.0511037
0.0511777
0.0512536
0.0513311
0.0514101
0.0514903
0.0515715
0.0516536
0.0517362
0.0518193
0.0519027
0.0519862
0.0520698
0.0521533
0.0522365
0.0523194
0.0524019
0.0524839
0.0525652
0.0526459
0.0527257
0.0528048
0.0528829
0.0529601
0.0530363
0.0531114
0.0531855
0.0532583
0.05333
0.0534005
0.0534698
0.0535377
0.0536044
0.0536698
0.0537339
0.0537966
0.0538581
0.0539181
0.0539769
0.0540342
0.0540903
0.054145
0.0541983
0.0542503
0.054301
0.0543504
0.0543985
0.0544453
0.0544909
0.0545352
0.0545782
0.0546201
0.0546607
0.0547001
0.0547384
0.0547755
0.0548116
0.0548465
0.0548803
0.054913
0.0549448
0.0549755
0.0550052
0.0550339
0.0550617
0.0550885
0.0551144
0.0551394
0.0551636
0.0551869
0.0504087
0.0504172
0.0504336
0.0504573
0.0504876
0.050524
0.0505661
0.0506132
0.0506651
0.0507211
0.0507811
0.0508444
0.0509109
0.0509802
0.051052
0.051126
0.0512018
0.0512794
0.0513584
0.0514386
0.0515198
0.0516018
0.0516844
0.0517675
0.051851
0.0519346
0.0520182
0.0521018
0.0521852
0.0522682
0.0523508
0.0524329
0.0525145
0.0525953
0.0526755
0.0527548
0.0528332
0.0529107
0.0529871
0.0530626
0.053137
0.0532102
0.0532823
0.0533532
0.0534228
0.0534912
0.0535584
0.0536242
0.0536887
0.0537519
0.0538138
0.0538744
0.0539336
0.0539914
0.0540479
0.0541031
0.0541569
0.0542094
0.0542606
0.0543104
0.054359
0.0544062
0.0544522
0.0544969
0.0545404
0.0545826
0.0546236
0.0546635
0.0547021
0.0547397
0.054776
0.0548113
0.0548455
0.0548785
0.0549106
0.0549416
0.0549716
0.0550006
0.0550287
0.0550558
0.055082
0.0551073
0.0551317
0.0551552
0.0503569
0.0503654
0.0503818
0.0504054
0.0504357
0.0504721
0.0505141
0.0505612
0.050613
0.0506691
0.0507289
0.0507923
0.0508587
0.0509279
0.0509997
0.0510736
0.0511494
0.0512269
0.0513059
0.0513861
0.0514672
0.0515492
0.0516319
0.051715
0.0517985
0.0518822
0.0519659
0.0520495
0.0521329
0.0522161
0.0522988
0.0523811
0.0524628
0.0525439
0.0526242
0.0527037
0.0527824
0.0528601
0.0529369
0.0530127
0.0530874
0.053161
0.0532334
0.0533047
0.0533748
0.0534436
0.0535112
0.0535775
0.0536425
0.0537061
0.0537685
0.0538295
0.0538892
0.0539475
0.0540045
0.0540602
0.0541145
0.0541674
0.0542191
0.0542694
0.0543184
0.0543661
0.0544126
0.0544577
0.0545016
0.0545443
0.0545858
0.054626
0.0546651
0.054703
0.0547397
0.0547753
0.0548099
0.0548433
0.0548757
0.054907
0.0549374
0.0549667
0.054995
0.0550224
0.0550489
0.0550744
0.0550991
0.0551229
0.0503047
0.0503132
0.0503296
0.0503532
0.0503834
0.0504198
0.0504618
0.0505088
0.0505606
0.0506166
0.0506764
0.0507396
0.050806
0.0508752
0.0509469
0.0510208
0.0510966
0.051174
0.0512529
0.0513331
0.0514142
0.0514962
0.0515788
0.051662
0.0517455
0.0518291
0.0519129
0.0519965
0.0520801
0.0521633
0.0522462
0.0523285
0.0524104
0.0524916
0.0525721
0.0526518
0.0527308
0.0528088
0.0528858
0.0529619
0.0530369
0.0531109
0.0531837
0.0532553
0.0533258
0.0533951
0.0534631
0.0535298
0.0535953
0.0536594
0.0537222
0.0537837
0.0538439
0.0539027
0.0539602
0.0540164
0.0540712
0.0541246
0.0541768
0.0542276
0.0542771
0.0543253
0.0543722
0.0544178
0.0544621
0.0545053
0.0545471
0.0545878
0.0546273
0.0546656
0.0547027
0.0547387
0.0547736
0.0548074
0.0548401
0.0548718
0.0549025
0.0549321
0.0549608
0.0549885
0.0550152
0.055041
0.055066
0.05509
0.0502523
0.0502608
0.0502772
0.0503007
0.050331
0.0503673
0.0504092
0.0504562
0.0505079
0.0505638
0.0506236
0.0506868
0.0507532
0.0508223
0.0508939
0.0509677
0.0510434
0.0511208
0.0511997
0.0512798
0.0513609
0.0514428
0.0515255
0.0516086
0.051692
0.0517757
0.0518595
0.0519432
0.0520267
0.05211
0.052193
0.0522755
0.0523574
0.0524388
0.0525195
0.0525994
0.0526785
0.0527567
0.0528341
0.0529104
0.0529857
0.05306
0.0531332
0.0532052
0.0532761
0.0533457
0.0534142
0.0534813
0.0535472
0.0536119
0.0536752
0.0537372
0.0537978
0.0538572
0.0539152
0.0539718
0.0540271
0.0540811
0.0541337
0.0541851
0.054235
0.0542837
0.0543311
0.0543772
0.054422
0.0544656
0.0545079
0.054549
0.0545889
0.0546276
0.0546652
0.0547016
0.0547369
0.054771
0.0548041
0.0548362
0.0548672
0.0548971
0.0549261
0.0549541
0.0549811
0.0550072
0.0550324
0.0550568
0.0501999
0.0502084
0.0502247
0.0502483
0.0502785
0.0503148
0.0503566
0.0504036
0.0504552
0.0505111
0.0505708
0.0506339
0.0507002
0.0507693
0.0508408
0.0509146
0.0509902
0.0510676
0.0511464
0.0512264
0.0513075
0.0513894
0.0514719
0.051555
0.0516385
0.0517221
0.0518059
0.0518896
0.0519732
0.0520565
0.0521395
0.052222
0.0523041
0.0523856
0.0524664
0.0525465
0.0526258
0.0527042
0.0527818
0.0528584
0.052934
0.0530086
0.0530821
0.0531544
0.0532257
0.0532957
0.0533646
0.0534322
0.0534986
0.0535636
0.0536274
0.0536899
0.0537511
0.0538109
0.0538695
0.0539266
0.0539825
0.054037
0.0540901
0.0541419
0.0541924
0.0542416
0.0542895
0.0543361
0.0543814
0.0544254
0.0544682
0.0545098
0.0545501
0.0545893
0.0546272
0.0546641
0.0546997
0.0547343
0.0547677
0.0548001
0.0548315
0.0548618
0.0548911
0.0549194
0.0549467
0.0549731
0.0549986
0.0550232
0.0501476
0.0501561
0.0501724
0.050196
0.0502261
0.0502624
0.0503042
0.0503511
0.0504027
0.0504585
0.0505181
0.0505812
0.0506474
0.0507164
0.0507879
0.0508615
0.0509371
0.0510144
0.0510931
0.0511731
0.0512541
0.0513359
0.0514184
0.0515015
0.0515849
0.0516685
0.0517522
0.0518359
0.0519195
0.0520028
0.0520859
0.0521685
0.0522506
0.0523321
0.052413
0.0524933
0.0525727
0.0526513
0.0527291
0.0528059
0.0528818
0.0529567
0.0530305
0.0531032
0.0531748
0.0532452
0.0533145
0.0533825
0.0534493
0.0535149
0.0535791
0.0536421
0.0537038
0.0537642
0.0538232
0.0538809
0.0539373
0.0539923
0.054046
0.0540983
0.0541494
0.0541991
0.0542475
0.0542946
0.0543404
0.0543849
0.0544282
0.0544702
0.054511
0.0545506
0.054589
0.0546262
0.0546623
0.0546973
0.0547311
0.0547639
0.0547956
0.0548262
0.0548558
0.0548845
0.0549121
0.0549388
0.0549646
0.0549894
0.0500957
0.0501041
0.0501204
0.0501439
0.050174
0.0502103
0.050252
0.0502989
0.0503504
0.0504061
0.0504657
0.0505287
0.0505949
0.0506638
0.0507352
0.0508087
0.0508843
0.0509615
0.0510401
0.05112
0.0512009
0.0512827
0.0513651
0.0514481
0.0515314
0.051615
0.0516987
0.0517823
0.0518659
0.0519492
0.0520322
0.0521149
0.052197
0.0522786
0.0523596
0.0524399
0.0525195
0.0525983
0.0526762
0.0527532
0.0528293
0.0529045
0.0529785
0.0530516
0.0531235
0.0531943
0.0532639
0.0533324
0.0533996
0.0534656
0.0535304
0.0535939
0.053656
0.0537169
0.0537765
0.0538347
0.0538916
0.0539472
0.0540014
0.0540543
0.0541059
0.0541561
0.0542051
0.0542527
0.054299
0.0543441
0.0543878
0.0544303
0.0544716
0.0545117
0.0545505
0.0545882
0.0546247
0.05466
0.0546943
0.0547274
0.0547595
0.0547905
0.0548205
0.0548494
0.0548774
0.0549044
0.0549305
0.0549556
0.0500441
0.0500526
0.0500688
0.0500923
0.0501224
0.0501586
0.0502003
0.0502471
0.0502985
0.0503542
0.0504137
0.0504767
0.0505427
0.0506115
0.0506829
0.0507564
0.0508318
0.0509089
0.0509875
0.0510673
0.0511481
0.0512298
0.0513121
0.051395
0.0514783
0.0515618
0.0516454
0.051729
0.0518125
0.0518958
0.0519788
0.0520614
0.0521436
0.0522252
0.0523062
0.0523866
0.0524663
0.0525451
0.0526232
0.0527004
0.0527767
0.0528521
0.0529264
0.0529997
0.0530719
0.0531431
0.0532131
0.0532819
0.0533496
0.0534161
0.0534813
0.0535452
0.0536079
0.0536693
0.0537294
0.0537882
0.0538456
0.0539017
0.0539565
0.05401
0.0540621
0.0541129
0.0541624
0.0542106
0.0542574
0.054303
0.0543473
0.0543903
0.0544321
0.0544726
0.0545119
0.05455
0.054587
0.0546228
0.0546574
0.054691
0.0547234
0.0547548
0.0547851
0.0548144
0.0548427
0.05487
0.0548964
0.0549218
0.0499931
0.0500015
0.0500178
0.0500412
0.0500713
0.0501074
0.0501491
0.0501958
0.0502472
0.0503028
0.0503622
0.0504251
0.0504911
0.0505598
0.0506311
0.0507045
0.0507798
0.0508568
0.0509353
0.051015
0.0510958
0.0511773
0.0512596
0.0513424
0.0514256
0.051509
0.0515925
0.051676
0.0517595
0.0518427
0.0519256
0.0520082
0.0520903
0.052172
0.052253
0.0523334
0.0524131
0.0524921
0.0525703
0.0526476
0.052724
0.0527996
0.0528741
0.0529477
0.0530202
0.0530917
0.053162
0.0532312
0.0532993
0.0533662
0.0534318
0.0534963
0.0535595
0.0536214
0.053682
0.0537413
0.0537993
0.053856
0.0539114
0.0539654
0.0540181
0.0540695
0.0541195
0.0541683
0.0542157
0.0542618
0.0543066
0.0543502
0.0543924
0.0544335
0.0544733
0.0545119
0.0545493
0.0545855
0.0546206
0.0546545
0.0546874
0.0547191
0.0547498
0.0547795
0.0548081
0.0548357
0.0548624
0.0548881
0.0499427
0.0499511
0.0499674
0.0499908
0.0500208
0.0500569
0.0500985
0.0501452
0.0501965
0.050252
0.0503114
0.0503742
0.0504401
0.0505087
0.0505799
0.0506532
0.0507285
0.0508054
0.0508838
0.0509634
0.051044
0.0511255
0.0512076
0.0512903
0.0513734
0.0514567
0.0515401
0.0516235
0.0517069
0.05179
0.0518729
0.0519554
0.0520375
0.052119
0.0522001
0.0522805
0.0523602
0.0524392
0.0525174
0.0525949
0.0526715
0.0527471
0.0528219
0.0528956
0.0529684
0.0530402
0.0531108
0.0531804
0.0532488
0.0533161
0.0533822
0.0534471
0.0535108
0.0535732
0.0536343
0.0536942
0.0537528
0.05381
0.053866
0.0539206
0.0539739
0.0540259
0.0540765
0.0541258
0.0541738
0.0542205
0.0542659
0.05431
0.0543528
0.0543944
0.0544347
0.0544738
0.0545116
0.0545483
0.0545839
0.0546182
0.0546515
0.0546836
0.0547147
0.0547447
0.0547737
0.0548017
0.0548287
0.0548547
0.049893
0.0499015
0.0499177
0.049941
0.049971
0.050007
0.0500486
0.0500953
0.0501465
0.050202
0.0502613
0.050324
0.0503898
0.0504584
0.0505294
0.0506027
0.0506778
0.0507546
0.0508329
0.0509124
0.0509929
0.0510743
0.0511563
0.0512389
0.0513219
0.051405
0.0514883
0.0515716
0.0516549
0.0517379
0.0518207
0.0519031
0.0519851
0.0520666
0.0521475
0.0522279
0.0523076
0.0523866
0.0524649
0.0525424
0.052619
0.0526948
0.0527697
0.0528437
0.0529166
0.0529886
0.0530596
0.0531294
0.0531982
0.0532659
0.0533324
0.0533978
0.0534619
0.0535248
0.0535865
0.0536469
0.053706
0.0537639
0.0538204
0.0538756
0.0539295
0.0539821
0.0540334
0.0540833
0.0541319
0.0541792
0.0542252
0.0542698
0.0543132
0.0543553
0.0543962
0.0544358
0.0544741
0.0545113
0.0545473
0.0545821
0.0546158
0.0546484
0.0546798
0.0547102
0.0547396
0.0547679
0.0547952
0.0548215
0.0498441
0.0498526
0.0498688
0.0498921
0.0499221
0.049958
0.0499995
0.0500461
0.0500973
0.0501527
0.0502119
0.0502746
0.0503403
0.0504088
0.0504798
0.0505529
0.050628
0.0507047
0.0507828
0.0508622
0.0509426
0.0510239
0.0511058
0.0511882
0.0512711
0.0513541
0.0514373
0.0515204
0.0516035
0.0516864
0.0517691
0.0518514
0.0519332
0.0520146
0.0520955
0.0521758
0.0522555
0.0523344
0.0524127
0.0524902
0.0525669
0.0526427
0.0527177
0.0527918
0.052865
0.0529372
0.0530083
0.0530785
0.0531476
0.0532156
0.0532825
0.0533483
0.0534129
0.0534763
0.0535385
0.0535994
0.0536591
0.0537176
0.0537747
0.0538305
0.0538851
0.0539383
0.0539902
0.0540407
0.0540899
0.0541379
0.0541844
0.0542297
0.0542737
0.0543164
0.0543578
0.054398
0.0544369
0.0544745
0.054511
0.0545463
0.0545804
0.0546134
0.0546453
0.0546761
0.0547058
0.0547345
0.0547621
0.0547888
0.0497961
0.0498046
0.0498207
0.0498441
0.049874
0.0499099
0.0499513
0.0499979
0.050049
0.0501043
0.0501635
0.050226
0.0502917
0.0503601
0.050431
0.050504
0.050579
0.0506556
0.0507336
0.0508129
0.0508932
0.0509743
0.0510561
0.0511384
0.0512211
0.051304
0.051387
0.05147
0.051553
0.0516357
0.0517182
0.0518003
0.0518821
0.0519634
0.0520441
0.0521243
0.0522038
0.0522827
0.0523609
0.0524384
0.0525151
0.052591
0.052666
0.0527402
0.0528135
0.0528858
0.0529572
0.0530276
0.053097
0.0531653
0.0532326
0.0532988
0.0533638
0.0534277
0.0534903
0.0535518
0.0536121
0.0536711
0.0537288
0.0537853
0.0538405
0.0538943
0.0539469
0.0539981
0.054048
0.0540966
0.0541438
0.0541897
0.0542343
0.0542776
0.0543196
0.0543604
0.0543998
0.054438
0.054475
0.0545108
0.0545454
0.0545789
0.0546112
0.0546424
0.0546725
0.0547015
0.0547295
0.0547565
0.0497491
0.0497575
0.0497736
0.0497969
0.0498268
0.0498627
0.0499041
0.0499505
0.0500016
0.0500569
0.0501159
0.0501784
0.050244
0.0503123
0.0503831
0.050456
0.0505309
0.0506074
0.0506853
0.0507645
0.0508446
0.0509256
0.0510073
0.0510895
0.051172
0.0512547
0.0513376
0.0514205
0.0515032
0.0515858
0.0516681
0.0517501
0.0518317
0.0519128
0.0519934
0.0520734
0.0521529
0.0522316
0.0523097
0.0523871
0.0524638
0.0525396
0.0526147
0.0526889
0.0527623
0.0528347
0.0529063
0.0529769
0.0530465
0.0531151
0.0531827
0.0532492
0.0533146
0.053379
0.0534421
0.0535041
0.0535649
0.0536245
0.0536829
0.05374
0.0537958
0.0538503
0.0539035
0.0539554
0.054006
0.0540553
0.0541032
0.0541498
0.0541951
0.054239
0.0542817
0.054323
0.0543631
0.0544019
0.0544395
0.0544758
0.0545109
0.0545448
0.0545776
0.0546092
0.0546398
0.0546692
0.0546976
0.0547249
0.049703
0.0497114
0.0497275
0.0497508
0.0497806
0.0498164
0.0498578
0.0499042
0.0499552
0.0500104
0.0500694
0.0501318
0.0501973
0.0502655
0.0503362
0.050409
0.0504838
0.0505602
0.050638
0.050717
0.0507971
0.0508779
0.0509595
0.0510415
0.0511238
0.0512064
0.0512891
0.0513718
0.0514544
0.0515368
0.0516189
0.0517007
0.0517821
0.051863
0.0519434
0.0520233
0.0521026
0.0521812
0.0522592
0.0523364
0.052413
0.0524888
0.0525638
0.052638
0.0527114
0.0527839
0.0528556
0.0529263
0.0529961
0.053065
0.0531328
0.0531997
0.0532655
0.0533302
0.0533938
0.0534563
0.0535177
0.0535779
0.0536368
0.0536945
0.053751
0.0538062
0.0538601
0.0539128
0.0539641
0.054014
0.0540627
0.05411
0.054156
0.0542006
0.054244
0.054286
0.0543267
0.0543661
0.0544043
0.0544412
0.0544768
0.0545113
0.0545446
0.0545767
0.0546076
0.0546375
0.0546662
0.054694
0.0496579
0.0496663
0.0496824
0.0497056
0.0497354
0.0497712
0.0498125
0.0498589
0.0499098
0.0499649
0.0500238
0.0500862
0.0501516
0.0502197
0.0502903
0.0503631
0.0504377
0.050514
0.0505917
0.0506706
0.0507505
0.0508313
0.0509126
0.0509945
0.0510767
0.0511591
0.0512416
0.0513241
0.0514065
0.0514887
0.0515707
0.0516522
0.0517334
0.0518141
0.0518943
0.051974
0.0520531
0.0521315
0.0522093
0.0522864
0.0523628
0.0524385
0.0525134
0.0525876
0.0526609
0.0527335
0.0528052
0.052876
0.052946
0.053015
0.0530831
0.0531502
0.0532164
0.0532815
0.0533455
0.0534085
0.0534703
0.0535311
0.0535906
0.053649
0.0537061
0.053762
0.0538167
0.05387
0.0539221
0.0539728
0.0540222
0.0540703
0.054117
0.0541624
0.0542065
0.0542492
0.0542906
0.0543307
0.0543695
0.0544071
0.0544433
0.0544784
0.0545122
0.0545448
0.0545762
0.0546065
0.0546357
0.0546638
0.0496138
0.0496222
0.0496383
0.0496615
0.0496913
0.049727
0.0497683
0.0498146
0.0498655
0.0499205
0.0499793
0.0500416
0.0501069
0.050175
0.0502455
0.0503181
0.0503927
0.0504689
0.0505465
0.0506253
0.050705
0.0507856
0.0508669
0.0509486
0.0510306
0.0511129
0.0511952
0.0512775
0.0513597
0.0514417
0.0515234
0.0516047
0.0516857
0.0517662
0.0518461
0.0519256
0.0520044
0.0520826
0.0521602
0.0522371
0.0523133
0.0523889
0.0524637
0.0525377
0.052611
0.0526835
0.0527552
0.0528261
0.0528961
0.0529653
0.0530335
0.0531009
0.0531673
0.0532327
0.0532972
0.0533606
0.0534229
0.0534842
0.0535443
0.0536033
0.0536611
0.0537177
0.0537731
0.0538272
0.05388
0.0539315
0.0539817
0.0540306
0.0540782
0.0541244
0.0541692
0.0542127
0.0542549
0.0542957
0.0543352
0.0543735
0.0544104
0.054446
0.0544804
0.0545136
0.0545456
0.0545764
0.054606
0.0546345
0.0495709
0.0495793
0.0495953
0.0496185
0.0496482
0.0496839
0.0497251
0.0497714
0.0498222
0.0498772
0.0499359
0.0499981
0.0500634
0.0501313
0.0502018
0.0502743
0.0503488
0.0504248
0.0505023
0.050581
0.0506606
0.0507411
0.0508222
0.0509037
0.0509856
0.0510677
0.0511498
0.0512319
0.0513139
0.0513957
0.0514772
0.0515583
0.051639
0.0517192
0.0517989
0.0518781
0.0519567
0.0520346
0.052112
0.0521886
0.0522646
0.05234
0.0524146
0.0524885
0.0525616
0.052634
0.0527057
0.0527765
0.0528466
0.0529158
0.0529842
0.0530517
0.0531183
0.0531841
0.0532488
0.0533126
0.0533754
0.0534372
0.0534979
0.0535575
0.0536159
0.0536732
0.0537293
0.0537842
0.0538378
0.0538902
0.0539412
0.053991
0.0540394
0.0540864
0.0541321
0.0541765
0.0542195
0.0542611
0.0543014
0.0543404
0.054378
0.0544144
0.0544494
0.0544832
0.0545158
0.0545471
0.0545773
0.0546063
0.049529
0.0495374
0.0495534
0.0495766
0.0496063
0.0496419
0.0496831
0.0497293
0.04978
0.049835
0.0498937
0.0499558
0.0500209
0.0500888
0.0501591
0.0502316
0.0503059
0.0503819
0.0504593
0.0505378
0.0506174
0.0506977
0.0507786
0.05086
0.0509417
0.0510236
0.0511056
0.0511875
0.0512692
0.0513508
0.051432
0.0515129
0.0515933
0.0516733
0.0517527
0.0518316
0.0519099
0.0519876
0.0520646
0.052141
0.0522168
0.0522918
0.0523662
0.0524399
0.0525129
0.0525851
0.0526566
0.0527274
0.0527974
0.0528667
0.0529351
0.0530027
0.0530695
0.0531355
0.0532005
0.0532646
0.0533278
0.0533901
0.0534513
0.0535114
0.0535705
0.0536285
0.0536854
0.053741
0.0537955
0.0538487
0.0539006
0.0539512
0.0540005
0.0540485
0.0540951
0.0541404
0.0541843
0.0542268
0.054268
0.0543078
0.0543462
0.0543833
0.0544191
0.0544536
0.0544868
0.0545188
0.0545495
0.054579
0.0494883
0.0494966
0.0495127
0.0495358
0.0495654
0.049601
0.0496422
0.0496883
0.049739
0.0497939
0.0498525
0.0499145
0.0499796
0.0500474
0.0501176
0.05019
0.0502643
0.0503401
0.0504174
0.0504958
0.0505752
0.0506554
0.0507362
0.0508174
0.050899
0.0509807
0.0510625
0.0511442
0.0512257
0.051307
0.051388
0.0514686
0.0515487
0.0516284
0.0517076
0.0517861
0.0518641
0.0519415
0.0520182
0.0520943
0.0521698
0.0522446
0.0523187
0.0523921
0.0524648
0.0525369
0.0526082
0.0526788
0.0527487
0.0528179
0.0528863
0.052954
0.0530209
0.053087
0.0531523
0.0532167
0.0532802
0.0533428
0.0534045
0.0534652
0.0535249
0.0535836
0.0536411
0.0536976
0.0537528
0.0538069
0.0538597
0.0539113
0.0539616
0.0540106
0.0540582
0.0541044
0.0541493
0.0541928
0.0542349
0.0542757
0.054315
0.054353
0.0543896
0.0544248
0.0544588
0.0544914
0.0545228
0.0545529
0.0494487
0.049457
0.049473
0.0494961
0.0495257
0.0495613
0.0496024
0.0496484
0.0496991
0.0497539
0.0498124
0.0498744
0.0499394
0.0500071
0.0500773
0.0501496
0.0502237
0.0502995
0.0503767
0.050455
0.0505343
0.0506143
0.050695
0.050776
0.0508574
0.0509389
0.0510205
0.051102
0.0511833
0.0512644
0.0513451
0.0514254
0.0515053
0.0515847
0.0516635
0.0517418
0.0518194
0.0518965
0.0519729
0.0520486
0.0521237
0.0521982
0.052272
0.0523451
0.0524175
0.0524893
0.0525604
0.0526308
0.0527006
0.0527696
0.052838
0.0529056
0.0529725
0.0530387
0.0531041
0.0531687
0.0532325
0.0532955
0.0533576
0.0534188
0.053479
0.0535383
0.0535966
0.0536538
0.0537099
0.0537648
0.0538186
0.0538712
0.0539225
0.0539724
0.0540211
0.0540684
0.0541144
0.0541589
0.0542021
0.0542438
0.0542842
0.0543231
0.0543606
0.0543968
0.0544316
0.054465
0.0544971
0.0545279
0.0494102
0.0494185
0.0494345
0.0494576
0.0494871
0.0495227
0.0495637
0.0496097
0.0496603
0.0497151
0.0497736
0.0498354
0.0499004
0.049968
0.0500381
0.0501103
0.0501844
0.05026
0.0503371
0.0504153
0.0504944
0.0505744
0.0506549
0.0507358
0.050817