/*--------------------------------*- C++ -*----------------------------------*\
  =========                 |
  \\      /  F ield         | OpenFOAM: The Open Source CFD Toolbox
   \\    /   O peration     | Website:  https://openfoam.org
    \\  /    A nd           | Version:  10
     \\/     M anipulation  |
\*---------------------------------------------------------------------------*/
FoamFile
{
    format      ascii;
    class       volVectorField;
    location    "0";
    object      U;
}
// * * * * * * * * * * * * * * * * * * * * * * * * * * * * * * * * * * * * * //

dimensions      [0 1 -1 0 0 0 0];

internalField   nonuniform List<vector> 
84253
(
(0.999997 -3.15621e-05 0)
(0.999999 -0.000120179 0)
(1 -0.000195209 0)
(0.999998 -0.00026943 0)
(0.999999 -0.00034229 0)
(0.999999 -0.000414728 0)
(1 -0.000484392 0)
(1 -0.000553089 0)
(1 -0.000620609 0)
(1 -0.000686397 0)
(0.999998 -0.000750728 0)
(0.999998 -0.000813964 0)
(0.999998 -0.000875356 0)
(1 -0.000934141 0)
(1 -0.000990866 0)
(1 -0.00104633 0)
(0.999998 -0.00109828 0)
(1 -0.00114813 0)
(1 -0.00119622 0)
(1 -0.00124089 0)
(0.999999 -0.00128375 0)
(0.999998 -0.00132238 0)
(0.999999 -0.00135839 0)
(0.999997 -0.00139172 0)
(0.999997 -0.00142115 0)
(0.999998 -0.001447 0)
(0.999998 -0.00146975 0)
(0.999999 -0.00148928 0)
(1 -0.00150533 0)
(1 -0.00151761 0)
(1 -0.00152645 0)
(1 -0.00153266 0)
(0.999999 -0.00153524 0)
(0.999997 -0.00153471 0)
(0.999999 -0.00153129 0)
(1 -0.001525 0)
(1 -0.00151543 0)
(1 -0.0015029 0)
(1 -0.00148805 0)
(1 -0.00147078 0)
(1 -0.00145148 0)
(1 -0.00142993 0)
(1 -0.00140643 0)
(1 -0.00138116 0)
(1 -0.00135413 0)
(1 -0.00132562 0)
(1 -0.00129589 0)
(1 -0.00126505 0)
(1 -0.00123319 0)
(1 -0.00120049 0)
(1 -0.0011671 0)
(1 -0.00113311 0)
(1 -0.00109879 0)
(1 -0.00106346 0)
(1 -0.00102631 0)
(1 -0.00099144 0)
(1 -0.00095792 0)
(1 -0.000921729 0)
(1 -0.000885263 0)
(1 -0.000850814 0)
(0.999999 -0.000816786 0)
(0.999999 -0.000782106 0)
(0.999998 -0.000747724 0)
(0.999997 -0.000713922 0)
(0.999996 -0.000680616 0)
(0.999995 -0.000647217 0)
(0.999994 -0.000614176 0)
(0.999993 -0.000583087 0)
(0.999992 -0.00055304 0)
(0.999992 -0.000522931 0)
(0.999992 -0.000493371 0)
(0.999992 -0.000464466 0)
(0.999993 -0.000435973 0)
(0.999993 -0.000408452 0)
(0.999993 -0.000382197 0)
(0.999994 -0.000356646 0)
(0.999995 -0.000331502 0)
(0.999995 -0.000307019 0)
(0.999995 -0.000283519 0)
(0.999996 -0.000260904 0)
(0.999996 -0.000238931 0)
(0.999996 -0.000217612 0)
(0.999996 -0.000197106 0)
(0.999997 -0.000177454 0)
(1.00016 -9.76128e-05 0)
(1.00016 -0.000354398 0)
(1.00016 -0.000562417 0)
(1.00016 -0.000784786 0)
(1.00016 -0.00100126 0)
(1.00016 -0.00120958 0)
(1.00016 -0.0014166 0)
(1.00017 -0.00161769 0)
(1.00016 -0.00181371 0)
(1.00017 -0.00200751 0)
(1.00017 -0.00219698 0)
(1.00017 -0.00238262 0)
(1.00017 -0.00256384 0)
(1.00016 -0.00273931 0)
(1.00016 -0.0029103 0)
(1.00016 -0.00307421 0)
(1.00016 -0.00323487 0)
(1.00016 -0.00338539 0)
(1.00015 -0.00352763 0)
(1.00015 -0.00366418 0)
(1.00014 -0.00379 0)
(1.00014 -0.00391042 0)
(1.00013 -0.0040212 0)
(1.00012 -0.00412376 0)
(1.00011 -0.00421729 0)
(1.0001 -0.00430045 0)
(1.00009 -0.00437328 0)
(1.00008 -0.00443673 0)
(1.00006 -0.00449071 0)
(1.00005 -0.00453431 0)
(1.00004 -0.00456765 0)
(1.00002 -0.00459022 0)
(1.00001 -0.00460455 0)
(0.999997 -0.0046104 0)
(0.999979 -0.00460612 0)
(0.999961 -0.00459179 0)
(0.999943 -0.00456986 0)
(0.999927 -0.00454041 0)
(0.99991 -0.00450287 0)
(0.999894 -0.00445771 0)
(0.999878 -0.00440607 0)
(0.99986 -0.00434781 0)
(0.999845 -0.00428364 0)
(0.999829 -0.00421438 0)
(0.999813 -0.00414014 0)
(0.999797 -0.00406146 0)
(0.999782 -0.00397863 0)
(0.999767 -0.00389214 0)
(0.999752 -0.00380244 0)
(0.999738 -0.00371001 0)
(0.999724 -0.00361524 0)
(0.999711 -0.00351846 0)
(0.999698 -0.00342009 0)
(0.999685 -0.00332085 0)
(0.999672 -0.00321951 0)
(0.99966 -0.00311875 0)
(0.999648 -0.00301851 0)
(0.999637 -0.00291696 0)
(0.999626 -0.00281592 0)
(0.999616 -0.00271601 0)
(0.999607 -0.00261672 0)
(0.999598 -0.00251794 0)
(0.999591 -0.00242036 0)
(0.999583 -0.00232388 0)
(0.999577 -0.00222878 0)
(0.99957 -0.00213502 0)
(0.999564 -0.00204243 0)
(0.999558 -0.00195195 0)
(0.999552 -0.00186323 0)
(0.999546 -0.00177595 0)
(0.999541 -0.00169065 0)
(0.999535 -0.00160733 0)
(0.999529 -0.00152578 0)
(0.999524 -0.00144624 0)
(0.999518 -0.00136882 0)
(0.999513 -0.00129335 0)
(0.999509 -0.00121982 0)
(0.999504 -0.00114826 0)
(0.9995 -0.00107872 0)
(0.999497 -0.00101119 0)
(0.999493 -0.000945573 0)
(0.99949 -0.000881876 0)
(0.999487 -0.000820127 0)
(0.999484 -0.000760407 0)
(1.00044 -0.000164758 0)
(1.00043 -0.000582488 0)
(1.00044 -0.000928376 0)
(1.00044 -0.00129743 0)
(1.00044 -0.00164915 0)
(1.00045 -0.00199644 0)
(1.00045 -0.00233754 0)
(1.00045 -0.00267329 0)
(1.00046 -0.00300389 0)
(1.00046 -0.00332449 0)
(1.00046 -0.00364146 0)
(1.00046 -0.00395234 0)
(1.00046 -0.00425393 0)
(1.00046 -0.00454982 0)
(1.00046 -0.00483878 0)
(1.00046 -0.00511752 0)
(1.00045 -0.00538523 0)
(1.00044 -0.00564419 0)
(1.00043 -0.00589236 0)
(1.00042 -0.00612651 0)
(1.0004 -0.00634757 0)
(1.00039 -0.00655893 0)
(1.00036 -0.00675547 0)
(1.00035 -0.00693476 0)
(1.00032 -0.00710077 0)
(1.00029 -0.00725175 0)
(1.00026 -0.00738692 0)
(1.00023 -0.00750459 0)
(1.0002 -0.00760589 0)
(1.00017 -0.00769617 0)
(1.00013 -0.00776897 0)
(1.00009 -0.00782292 0)
(1.00005 -0.00786165 0)
(1.00001 -0.00788319 0)
(0.999961 -0.00789056 0)
(0.999919 -0.00788412 0)
(0.999878 -0.00786395 0)
(0.999832 -0.00782982 0)
(0.999786 -0.00778274 0)
(0.99974 -0.00772376 0)
(0.999695 -0.00765181 0)
(0.999649 -0.00756973 0)
(0.999604 -0.00747775 0)
(0.99956 -0.0073757 0)
(0.999516 -0.00726533 0)
(0.999473 -0.00714718 0)
(0.99943 -0.00702192 0)
(0.999389 -0.00689034 0)
(0.999349 -0.00675307 0)
(0.99931 -0.00661081 0)
(0.999272 -0.00646419 0)
(0.999235 -0.0063139 0)
(0.999199 -0.00616046 0)
(0.999165 -0.00600482 0)
(0.999132 -0.00584703 0)
(0.9991 -0.00568794 0)
(0.999069 -0.005528 0)
(0.999041 -0.00536745 0)
(0.999013 -0.00520698 0)
(0.998986 -0.00504686 0)
(0.998961 -0.00488743 0)
(0.998936 -0.00472902 0)
(0.998913 -0.00457202 0)
(0.998891 -0.00441659 0)
(0.998869 -0.0042631 0)
(0.998848 -0.0041118 0)
(0.998829 -0.00396276 0)
(0.998811 -0.00381629 0)
(0.998794 -0.00367248 0)
(0.998779 -0.0035314 0)
(0.998765 -0.00339323 0)
(0.998752 -0.00325799 0)
(0.998741 -0.00312575 0)
(0.99873 -0.00299661 0)
(0.99872 -0.00287062 0)
(0.99871 -0.00274783 0)
(0.998702 -0.00262829 0)
(0.998693 -0.00251203 0)
(0.998686 -0.00239905 0)
(0.998678 -0.00228938 0)
(0.998672 -0.00218298 0)
(0.998665 -0.00207985 0)
(0.998659 -0.00198 0)
(0.998653 -0.00188344 0)
(1.00082 -0.000229186 0)
(1.00081 -0.000806145 0)
(1.00082 -0.00129306 0)
(1.00082 -0.00180847 0)
(1.00083 -0.00229661 0)
(1.00083 -0.00278216 0)
(1.00084 -0.00325984 0)
(1.00085 -0.00372829 0)
(1.00086 -0.00419066 0)
(1.00086 -0.00464346 0)
(1.00087 -0.00509117 0)
(1.00088 -0.00553247 0)
(1.00087 -0.00596081 0)
(1.00088 -0.00638144 0)
(1.00087 -0.00679076 0)
(1.00087 -0.00719162 0)
(1.00085 -0.00757533 0)
(1.00085 -0.00794741 0)
(1.00083 -0.00830775 0)
(1.0008 -0.00864955 0)
(1.00078 -0.0089778 0)
(1.00076 -0.00928729 0)
(1.00072 -0.00957926 0)
(1.00068 -0.00985155 0)
(1.00064 -0.0101029 0)
(1.00059 -0.0103344 0)
(1.00053 -0.0105446 0)
(1.00047 -0.0107322 0)
(1.00042 -0.0108986 0)
(1.00036 -0.0110418 0)
(1.00029 -0.0111637 0)
(1.00021 -0.0112645 0)
(1.00014 -0.0113408 0)
(1.00007 -0.0113971 0)
(0.999987 -0.0114337 0)
(0.999906 -0.0114491 0)
(0.999822 -0.0114439 0)
(0.999738 -0.0114199 0)
(0.999655 -0.011377 0)
(0.999569 -0.0113163 0)
(0.999483 -0.0112396 0)
(0.9994 -0.011147 0)
(0.999315 -0.0110393 0)
(0.999231 -0.0109181 0)
(0.999149 -0.0107845 0)
(0.999068 -0.0106391 0)
(0.998988 -0.0104831 0)
(0.99891 -0.0103173 0)
(0.998833 -0.0101427 0)
(0.998758 -0.0099604 0)
(0.998686 -0.00977128 0)
(0.998615 -0.00957635 0)
(0.998547 -0.00937654 0)
(0.998481 -0.00917269 0)
(0.998417 -0.00896547 0)
(0.998356 -0.00875571 0)
(0.998297 -0.00854412 0)
(0.998241 -0.00833125 0)
(0.998187 -0.00811783 0)
(0.998136 -0.00790449 0)
(0.998086 -0.00769164 0)
(0.99804 -0.00747975 0)
(0.997996 -0.00726924 0)
(0.997955 -0.00706053 0)
(0.997915 -0.00685396 0)
(0.997879 -0.00664984 0)
(0.997844 -0.00644853 0)
(0.997811 -0.00625025 0)
(0.997779 -0.00605525 0)
(0.997748 -0.00586375 0)
(0.997719 -0.00567594 0)
(0.997691 -0.00549199 0)
(0.997664 -0.00531203 0)
(0.997638 -0.00513617 0)
(0.997614 -0.00496449 0)
(0.997592 -0.00479705 0)
(0.997571 -0.00463389 0)
(0.997551 -0.00447504 0)
(0.997533 -0.0043205 0)
(0.997515 -0.00417028 0)
(0.997499 -0.00402438 0)
(0.997484 -0.00388278 0)
(0.99747 -0.00374549 0)
(0.997457 -0.00361253 0)
(1.00131 -0.00029448 0)
(1.0013 -0.00102632 0)
(1.00132 -0.0016456 0)
(1.00132 -0.00230734 0)
(1.00134 -0.00293022 0)
(1.00135 -0.00354857 0)
(1.00136 -0.00416328 0)
(1.00137 -0.00476472 0)
(1.00139 -0.00535735 0)
(1.0014 -0.00594478 0)
(1.00141 -0.00651979 0)
(1.00142 -0.00708855 0)
(1.00142 -0.00764547 0)
(1.00143 -0.00819268 0)
(1.00143 -0.00873075 0)
(1.00143 -0.00925197 0)
(1.00141 -0.00976254 0)
(1.00139 -0.0102536 0)
(1.00137 -0.010727 0)
(1.00134 -0.0111878 0)
(1.0013 -0.0116277 0)
(1.00126 -0.012045 0)
(1.00121 -0.0124392 0)
(1.00115 -0.0128127 0)
(1.00108 -0.0131612 0)
(1.00102 -0.0134835 0)
(1.00093 -0.0137798 0)
(1.00085 -0.0140498 0)
(1.00076 -0.0142949 0)
(1.00065 -0.0145072 0)
(1.00055 -0.0146921 0)
(1.00043 -0.0148531 0)
(1.00032 -0.0149855 0)
(1.0002 -0.015088 0)
(1.00008 -0.0151623 0)
(0.999946 -0.0152127 0)
(0.999819 -0.0152372 0)
(0.999686 -0.0152369 0)
(0.999548 -0.0152125 0)
(0.999413 -0.0151643 0)
(0.999278 -0.0150953 0)
(0.999139 -0.015005 0)
(0.999003 -0.0148946 0)
(0.998869 -0.0147664 0)
(0.998736 -0.0146204 0)
(0.998604 -0.0144585 0)
(0.998473 -0.0142818 0)
(0.998345 -0.0140917 0)
(0.998219 -0.0138899 0)
(0.998098 -0.0136774 0)
(0.997979 -0.0134552 0)
(0.997864 -0.0132246 0)
(0.997752 -0.0129867 0)
(0.997644 -0.0127427 0)
(0.99754 -0.0124935 0)
(0.997439 -0.01224 0)
(0.997342 -0.0119833 0)
(0.997249 -0.0117241 0)
(0.99716 -0.0114633 0)
(0.997074 -0.0112015 0)
(0.996992 -0.0109398 0)
(0.996914 -0.0106785 0)
(0.996838 -0.0104184 0)
(0.996766 -0.01016 0)
(0.996697 -0.0099038 0)
(0.996632 -0.00965028 0)
(0.996569 -0.00939984 0)
(0.996511 -0.00915282 0)
(0.996455 -0.00890953 0)
(0.996403 -0.00867026 0)
(0.996355 -0.00843526 0)
(0.99631 -0.00820473 0)
(0.996268 -0.00797883 0)
(0.996228 -0.00775774 0)
(0.99619 -0.00754159 0)
(0.996155 -0.00733048 0)
(0.996122 -0.00712451 0)
(0.996091 -0.00692377 0)
(0.996062 -0.0067283 0)
(0.996034 -0.00653814 0)
(0.996008 -0.00635332 0)
(0.995983 -0.00617385 0)
(0.995961 -0.00599974 0)
(0.995939 -0.00583101 0)
(1.0019 -0.000359532 0)
(1.00189 -0.00124068 0)
(1.00191 -0.00198685 0)
(1.00192 -0.00278194 0)
(1.00194 -0.00353461 0)
(1.00196 -0.00428588 0)
(1.00198 -0.00502542 0)
(1.00201 -0.00575957 0)
(1.00203 -0.00648326 0)
(1.00205 -0.00719935 0)
(1.00207 -0.00790197 0)
(1.00209 -0.00859527 0)
(1.00209 -0.00928159 0)
(1.00211 -0.00995369 0)
(1.00211 -0.0106146 0)
(1.0021 -0.0112633 0)
(1.00209 -0.011897 0)
(1.00207 -0.012512 0)
(1.00204 -0.0131103 0)
(1.00201 -0.0136905 0)
(1.00196 -0.0142457 0)
(1.00191 -0.0147767 0)
(1.00183 -0.015284 0)
(1.00176 -0.0157649 0)
(1.00167 -0.0162186 0)
(1.00157 -0.0166414 0)
(1.00146 -0.0170339 0)
(1.00134 -0.0173961 0)
(1.00121 -0.0177252 0)
(1.00107 -0.0180233 0)
(1.00092 -0.018287 0)
(1.00077 -0.0185167 0)
(1.0006 -0.0187138 0)
(1.00042 -0.0188752 0)
(1.00025 -0.019005 0)
(1.00007 -0.0191044 0)
(0.999879 -0.0191714 0)
(0.999688 -0.0192055 0)
(0.999493 -0.0192102 0)
(0.999296 -0.0191873 0)
(0.999099 -0.0191364 0)
(0.998901 -0.0190592 0)
(0.998703 -0.0189571 0)
(0.998505 -0.0188314 0)
(0.998309 -0.0186833 0)
(0.998115 -0.018515 0)
(0.997924 -0.0183279 0)
(0.997738 -0.0181234 0)
(0.997555 -0.017903 0)
(0.997375 -0.0176682 0)
(0.9972 -0.0174206 0)
(0.997029 -0.0171614 0)
(0.996864 -0.016892 0)
(0.996704 -0.0166139 0)
(0.996549 -0.0163282 0)
(0.996399 -0.0160363 0)
(0.996255 -0.0157394 0)
(0.996116 -0.0154386 0)
(0.995983 -0.0151348 0)
(0.995856 -0.014829 0)
(0.995734 -0.0145222 0)
(0.995618 -0.0142152 0)
(0.995508 -0.0139087 0)
(0.995404 -0.0136035 0)
(0.995304 -0.0133001 0)
(0.99521 -0.0129992 0)
(0.995121 -0.0127012 0)
(0.995035 -0.0124067 0)
(0.994954 -0.0121162 0)
(0.994877 -0.01183 0)
(0.994803 -0.0115485 0)
(0.994732 -0.0112721 0)
(0.994665 -0.011001 0)
(0.994602 -0.0107355 0)
(0.994542 -0.0104757 0)
(0.994485 -0.0102217 0)
(0.994432 -0.00997383 0)
(0.994382 -0.00973202 0)
(0.994335 -0.00949639 0)
(0.99429 -0.009267 0)
(0.994249 -0.00904387 0)
(0.99421 -0.00882703 0)
(0.994174 -0.00861649 0)
(0.99414 -0.00841229 0)
(1.00256 -0.000420868 0)
(1.00256 -0.0014398 0)
(1.00259 -0.00230334 0)
(1.0026 -0.0032275 0)
(1.00263 -0.00410383 0)
(1.00266 -0.00498174 0)
(1.00269 -0.00583977 0)
(1.00272 -0.00669517 0)
(1.00275 -0.00754219 0)
(1.00279 -0.00837996 0)
(1.00282 -0.00920918 0)
(1.00285 -0.0100255 0)
(1.00287 -0.0108364 0)
(1.00288 -0.0116323 0)
(1.0029 -0.012416 0)
(1.0029 -0.0131892 0)
(1.00289 -0.0139462 0)
(1.00287 -0.0146887 0)
(1.00284 -0.0154098 0)
(1.0028 -0.0161085 0)
(1.00274 -0.016786 0)
(1.00267 -0.0174368 0)
(1.0026 -0.0180598 0)
(1.0025 -0.0186543 0)
(1.00238 -0.0192186 0)
(1.00225 -0.0197506 0)
(1.00211 -0.0202501 0)
(1.00196 -0.0207123 0)
(1.00179 -0.0211352 0)
(1.00161 -0.0215213 0)
(1.00141 -0.0218715 0)
(1.00121 -0.0221838 0)
(1.00099 -0.0224551 0)
(1.00076 -0.0226911 0)
(1.00053 -0.022888 0)
(1.00028 -0.0230433 0)
(1.00003 -0.0231633 0)
(0.99977 -0.0232461 0)
(0.999512 -0.0232923 0)
(0.999247 -0.0233051 0)
(0.99898 -0.0232831 0)
(0.998709 -0.0232291 0)
(0.99844 -0.0231455 0)
(0.998172 -0.0230331 0)
(0.997905 -0.0228937 0)
(0.997641 -0.0227285 0)
(0.99738 -0.0225395 0)
(0.997121 -0.0223287 0)
(0.996869 -0.0220975 0)
(0.996621 -0.0218482 0)
(0.996379 -0.0215821 0)
(0.996143 -0.0213011 0)
(0.995914 -0.0210067 0)
(0.995691 -0.0207006 0)
(0.995476 -0.0203843 0)
(0.995268 -0.0200594 0)
(0.995067 -0.0197272 0)
(0.994873 -0.0193891 0)
(0.994687 -0.0190463 0)
(0.994509 -0.0187 0)
(0.994337 -0.0183513 0)
(0.994172 -0.0180013 0)
(0.994014 -0.017651 0)
(0.993863 -0.0173012 0)
(0.993719 -0.0169528 0)
(0.99358 -0.0166067 0)
(0.993449 -0.0162635 0)
(0.993324 -0.0159238 0)
(0.993206 -0.0155882 0)
(0.993095 -0.015257 0)
(0.992991 -0.0149308 0)
(0.992892 -0.0146098 0)
(0.992799 -0.0142945 0)
(0.992712 -0.0139852 0)
(0.992629 -0.0136821 0)
(0.992551 -0.0133854 0)
(0.992477 -0.0130954 0)
(0.992407 -0.0128122 0)
(0.992342 -0.0125359 0)
(0.992279 -0.0122668 0)
(0.992221 -0.0120047 0)
(0.992166 -0.0117499 0)
(0.992114 -0.0115023 0)
(0.992065 -0.0112619 0)
(1.00329 -0.000477473 0)
(1.00329 -0.00162326 0)
(1.00333 -0.0025973 0)
(1.00335 -0.00364124 0)
(1.00339 -0.00462816 0)
(1.00342 -0.00562413 0)
(1.00347 -0.00659803 0)
(1.00352 -0.00756701 0)
(1.00356 -0.00852809 0)
(1.00361 -0.00947784 0)
(1.00366 -0.0104267 0)
(1.0037 -0.0113629 0)
(1.00373 -0.0122907 0)
(1.00377 -0.0132095 0)
(1.00379 -0.0141161 0)
(1.0038 -0.0150083 0)
(1.0038 -0.0158878 0)
(1.00378 -0.0167525 0)
(1.00375 -0.0175962 0)
(1.00371 -0.0184158 0)
(1.00365 -0.0192146 0)
(1.00357 -0.0199902 0)
(1.00347 -0.0207313 0)
(1.00336 -0.021442 0)
(1.00323 -0.0221209 0)
(1.00308 -0.0227661 0)
(1.0029 -0.0233772 0)
(1.00271 -0.0239472 0)
(1.0025 -0.0244743 0)
(1.00228 -0.0249606 0)
(1.00204 -0.0254067 0)
(1.00178 -0.0258086 0)
(1.0015 -0.0261677 0)
(1.00122 -0.026485 0)
(1.00091 -0.0267551 0)
(1.00061 -0.0269796 0)
(1.00029 -0.0271614 0)
(0.999956 -0.0273025 0)
(0.999622 -0.0274017 0)
(0.99928 -0.0274596 0)
(0.99893 -0.0274786 0)
(0.998585 -0.0274591 0)
(0.998237 -0.0274035 0)
(0.997888 -0.0273129 0)
(0.997538 -0.0271901 0)
(0.997192 -0.0270364 0)
(0.996849 -0.0268539 0)
(0.996512 -0.0266447 0)
(0.996181 -0.0264106 0)
(0.995855 -0.0261533 0)
(0.995536 -0.025875 0)
(0.995224 -0.0255779 0)
(0.994921 -0.0252638 0)
(0.994625 -0.0249345 0)
(0.994339 -0.0245919 0)
(0.994063 -0.0242378 0)
(0.993795 -0.0238737 0)
(0.993537 -0.0235015 0)
(0.993288 -0.0231225 0)
(0.993049 -0.0227383 0)
(0.99282 -0.0223501 0)
(0.992602 -0.0219593 0)
(0.992393 -0.0215671 0)
(0.992193 -0.0211744 0)
(0.992004 -0.0207823 0)
(0.991823 -0.0203916 0)
(0.991651 -0.0200033 0)
(0.991487 -0.019618 0)
(0.991331 -0.0192366 0)
(0.991181 -0.0188597 0)
(0.991038 -0.0184879 0)
(0.990902 -0.0181217 0)
(0.990773 -0.0177617 0)
(0.99065 -0.0174081 0)
(0.990534 -0.0170613 0)
(0.990425 -0.0167217 0)
(0.990321 -0.0163893 0)
(0.990224 -0.0160646 0)
(0.990132 -0.0157475 0)
(0.990045 -0.0154384 0)
(0.989963 -0.0151371 0)
(0.989886 -0.014844 0)
(0.989814 -0.0145589 0)
(0.989746 -0.0142821 0)
(1.00409 -0.000527505 0)
(1.00409 -0.00178737 0)
(1.00412 -0.00286682 0)
(1.00416 -0.00402107 0)
(1.00421 -0.00511029 0)
(1.00426 -0.00621235 0)
(1.00432 -0.00729406 0)
(1.00439 -0.00836606 0)
(1.00444 -0.00943519 0)
(1.00451 -0.0104964 0)
(1.00458 -0.0115544 0)
(1.00463 -0.0126022 0)
(1.00468 -0.0136422 0)
(1.00473 -0.014676 0)
(1.00477 -0.0157016 0)
(1.0048 -0.0167139 0)
(1.0048 -0.0177094 0)
(1.0048 -0.0186942 0)
(1.00477 -0.0196587 0)
(1.00473 -0.0206017 0)
(1.00467 -0.02152 0)
(1.00459 -0.0224154 0)
(1.00448 -0.0232835 0)
(1.00435 -0.0241141 0)
(1.0042 -0.0249127 0)
(1.00403 -0.0256759 0)
(1.00383 -0.0263989 0)
(1.0036 -0.0270823 0)
(1.00335 -0.0277223 0)
(1.00309 -0.0283202 0)
(1.00279 -0.0288703 0)
(1.00248 -0.0293688 0)
(1.00215 -0.0298224 0)
(1.0018 -0.0302254 0)
(1.00143 -0.0305817 0)
(1.00105 -0.0308887 0)
(1.00066 -0.0311442 0)
(1.00025 -0.0313523 0)
(0.999834 -0.031513 0)
(0.99941 -0.0316259 0)
(0.998979 -0.0316944 0)
(0.998542 -0.0317191 0)
(0.998104 -0.0317 0)
(0.997666 -0.0316414 0)
(0.99723 -0.0315442 0)
(0.996794 -0.0314109 0)
(0.996362 -0.031243 0)
(0.995935 -0.0310427 0)
(0.995512 -0.0308123 0)
(0.995098 -0.030554 0)
(0.994691 -0.0302701 0)
(0.994294 -0.029963 0)
(0.993906 -0.0296347 0)
(0.993528 -0.0292876 0)
(0.993162 -0.0289236 0)
(0.992806 -0.0285447 0)
(0.992462 -0.028153 0)
(0.99213 -0.0277503 0)
(0.99181 -0.0273383 0)
(0.991501 -0.0269188 0)
(0.991205 -0.0264933 0)
(0.99092 -0.0260634 0)
(0.990646 -0.0256305 0)
(0.990384 -0.0251958 0)
(0.990132 -0.0247608 0)
(0.989891 -0.0243266 0)
(0.989662 -0.0238941 0)
(0.989443 -0.0234643 0)
(0.989236 -0.0230381 0)
(0.98904 -0.0226163 0)
(0.988855 -0.0221994 0)
(0.98868 -0.021788 0)
(0.988514 -0.0213829 0)
(0.988357 -0.0209843 0)
(0.988208 -0.0205929 0)
(0.988067 -0.020209 0)
(0.987934 -0.019833 0)
(0.987808 -0.0194651 0)
(0.987688 -0.0191056 0)
(0.987576 -0.0187547 0)
(0.987469 -0.0184125 0)
(0.987368 -0.0180793 0)
(0.987273 -0.0177551 0)
(0.987184 -0.01744 0)
(1.00491 -0.000573746 0)
(1.00492 -0.00193678 0)
(1.00496 -0.00310953 0)
(1.00501 -0.0043679 0)
(1.00507 -0.00555264 0)
(1.00514 -0.00674544 0)
(1.00521 -0.00792735 0)
(1.0053 -0.00910053 0)
(1.00538 -0.0102685 0)
(1.00547 -0.0114343 0)
(1.00555 -0.0125929 0)
(1.00563 -0.013744 0)
(1.0057 -0.014894 0)
(1.00577 -0.0160409 0)
(1.00583 -0.0171777 0)
(1.00586 -0.0183016 0)
(1.0059 -0.0194143 0)
(1.0059 -0.0205149 0)
(1.00588 -0.0215985 0)
(1.00585 -0.0226648 0)
(1.0058 -0.0237066 0)
(1.00571 -0.0247203 0)
(1.0056 -0.0257095 0)
(1.00545 -0.0266664 0)
(1.00529 -0.0275873 0)
(1.0051 -0.0284717 0)
(1.00487 -0.0293147 0)
(1.00461 -0.030118 0)
(1.00433 -0.0308761 0)
(1.00402 -0.0315869 0)
(1.00368 -0.032245 0)
(1.00332 -0.0328536 0)
(1.00293 -0.0334113 0)
(1.00251 -0.0339107 0)
(1.00208 -0.0343588 0)
(1.00162 -0.034755 0)
(1.00115 -0.0350963 0)
(1.00066 -0.035381 0)
(1.00016 -0.035613 0)
(0.999647 -0.035794 0)
(0.999127 -0.0359208 0)
(0.998597 -0.035998 0)
(0.998066 -0.036027 0)
(0.997532 -0.0360094 0)
(0.996996 -0.0359464 0)
(0.99646 -0.0358404 0)
(0.995928 -0.0356939 0)
(0.995401 -0.0355094 0)
(0.994881 -0.0352893 0)
(0.994368 -0.0350362 0)
(0.993864 -0.0347522 0)
(0.993371 -0.0344401 0)
(0.992889 -0.0341021 0)
(0.992418 -0.0337407 0)
(0.991961 -0.0333585 0)
(0.991516 -0.0329577 0)
(0.991086 -0.0325404 0)
(0.990669 -0.032109 0)
(0.990267 -0.0316655 0)
(0.98988 -0.031212 0)
(0.989507 -0.0307503 0)
(0.98915 -0.0302821 0)
(0.988807 -0.0298092 0)
(0.98848 -0.0293332 0)
(0.988168 -0.0288554 0)
(0.98787 -0.028377 0)
(0.987585 -0.0278994 0)
(0.987313 -0.0274237 0)
(0.987053 -0.026951 0)
(0.986805 -0.0264823 0)
(0.986567 -0.0260184 0)
(0.986341 -0.0255602 0)
(0.986126 -0.0251083 0)
(0.985921 -0.0246634 0)
(0.985727 -0.0242261 0)
(0.985544 -0.0237968 0)
(0.98537 -0.0233759 0)
(0.985206 -0.0229638 0)
(0.985051 -0.0225607 0)
(0.984904 -0.022167 0)
(0.984766 -0.0217828 0)
(0.984636 -0.0214083 0)
(0.984513 -0.0210437 0)
(0.984397 -0.0206891 0)
(1.00578 -0.000616804 0)
(1.00579 -0.00207615 0)
(1.00584 -0.00333447 0)
(1.00589 -0.00468256 0)
(1.00597 -0.00595489 0)
(1.00605 -0.00723421 0)
(1.00615 -0.00850519 0)
(1.00625 -0.00977566 0)
(1.00635 -0.0110344 0)
(1.00647 -0.0122916 0)
(1.00657 -0.0135478 0)
(1.00668 -0.0148003 0)
(1.00678 -0.0160533 0)
(1.00687 -0.0173066 0)
(1.00695 -0.0185464 0)
(1.00701 -0.0197801 0)
(1.00706 -0.0210094 0)
(1.00708 -0.0222216 0)
(1.00709 -0.0234234 0)
(1.00706 -0.024607 0)
(1.00701 -0.02577 0)
(1.00693 -0.0269059 0)
(1.00682 -0.0280157 0)
(1.00667 -0.0291006 0)
(1.0065 -0.0301468 0)
(1.00629 -0.0311554 0)
(1.00604 -0.0321236 0)
(1.00576 -0.0330498 0)
(1.00544 -0.03393 0)
(1.00509 -0.0347577 0)
(1.0047 -0.0355342 0)
(1.00429 -0.0362577 0)
(1.00384 -0.0369244 0)
(1.00336 -0.0375356 0)
(1.00286 -0.0380852 0)
(1.00233 -0.0385771 0)
(1.00178 -0.0390098 0)
(1.0012 -0.0393827 0)
(1.00062 -0.0396973 0)
(1.00001 -0.0399524 0)
(0.999389 -0.0401489 0)
(0.998764 -0.0402885 0)
(0.998128 -0.0403736 0)
(0.997489 -0.0404041 0)
(0.996846 -0.0403838 0)
(0.996204 -0.0403142 0)
(0.995565 -0.040198 0)
(0.99493 -0.0400374 0)
(0.994301 -0.0398352 0)
(0.99368 -0.0395936 0)
(0.993069 -0.039316 0)
(0.992469 -0.0390047 0)
(0.991882 -0.0386625 0)
(0.991308 -0.0382921 0)
(0.990749 -0.0378962 0)
(0.990205 -0.0374776 0)
(0.989678 -0.0370388 0)
(0.989167 -0.0365821 0)
(0.988673 -0.0361101 0)
(0.988197 -0.0356248 0)
(0.987737 -0.0351287 0)
(0.987295 -0.0346235 0)
(0.98687 -0.0341113 0)
(0.986461 -0.0335939 0)
(0.986068 -0.0330731 0)
(0.985692 -0.0325505 0)
(0.985332 -0.0320275 0)
(0.984989 -0.0315056 0)
(0.984663 -0.030986 0)
(0.984354 -0.0304699 0)
(0.98406 -0.0299581 0)
(0.983782 -0.0294516 0)
(0.983518 -0.0289514 0)
(0.983267 -0.0284581 0)
(0.983029 -0.0279725 0)
(0.982804 -0.0274951 0)
(0.98259 -0.0270265 0)
(0.982387 -0.0265672 0)
(0.982195 -0.0261176 0)
(0.982013 -0.025678 0)
(0.981841 -0.0252487 0)
(0.981679 -0.02483 0)
(0.981525 -0.0244221 0)
(0.98138 -0.0240251 0)
(1.00665 -0.000657059 0)
(1.00668 -0.00220287 0)
(1.00673 -0.00354018 0)
(1.0068 -0.00496739 0)
(1.00689 -0.00631754 0)
(1.00699 -0.0076863 0)
(1.00711 -0.009038 0)
(1.00724 -0.0103868 0)
(1.00737 -0.0117344 0)
(1.00751 -0.0130808 0)
(1.00764 -0.0144247 0)
(1.00777 -0.015777 0)
(1.00791 -0.0171259 0)
(1.00803 -0.0184709 0)
(1.00813 -0.0198157 0)
(1.00822 -0.0211568 0)
(1.00829 -0.0224925 0)
(1.00833 -0.0238189 0)
(1.00836 -0.0251323 0)
(1.00835 -0.0264305 0)
(1.00831 -0.0277144 0)
(1.00824 -0.0289729 0)
(1.00814 -0.030207 0)
(1.00799 -0.0314162 0)
(1.00781 -0.0325903 0)
(1.00759 -0.0337264 0)
(1.00733 -0.0348206 0)
(1.00702 -0.035872 0)
(1.00667 -0.0368781 0)
(1.00629 -0.0378314 0)
(1.00586 -0.0387328 0)
(1.00539 -0.039577 0)
(1.00489 -0.0403607 0)
(1.00435 -0.0410871 0)
(1.00378 -0.0417486 0)
(1.00318 -0.0423467 0)
(1.00254 -0.0428801 0)
(1.00188 -0.0433498 0)
(1.0012 -0.0437556 0)
(1.0005 -0.0440926 0)
(0.99978 -0.0443677 0)
(0.999046 -0.0445789 0)
(0.998304 -0.0447279 0)
(0.997554 -0.0448184 0)
(0.996799 -0.0448496 0)
(0.996042 -0.0448248 0)
(0.995285 -0.0447459 0)
(0.994533 -0.044616 0)
(0.993786 -0.0444381 0)
(0.993048 -0.0442147 0)
(0.992319 -0.0439488 0)
(0.991602 -0.0436431 0)
(0.9909 -0.0433008 0)
(0.990212 -0.0429249 0)
(0.989541 -0.0425184 0)
(0.988888 -0.0420843 0)
(0.988253 -0.0416253 0)
(0.987637 -0.0411443 0)
(0.98704 -0.0406441 0)
(0.986464 -0.0401273 0)
(0.985909 -0.0395963 0)
(0.985374 -0.0390537 0)
(0.984861 -0.0385018 0)
(0.984368 -0.0379425 0)
(0.983897 -0.0373779 0)
(0.983447 -0.0368098 0)
(0.983016 -0.0362399 0)
(0.982604 -0.0356698 0)
(0.982209 -0.035101 0)
(0.981831 -0.0345348 0)
(0.98147 -0.0339726 0)
(0.981126 -0.0334156 0)
(0.980798 -0.0328646 0)
(0.980486 -0.0323208 0)
(0.98019 -0.0317849 0)
(0.979909 -0.0312575 0)
(0.979643 -0.0307395 0)
(0.979391 -0.0302312 0)
(0.979153 -0.0297332 0)
(0.978928 -0.0292459 0)
(0.978715 -0.0287697 0)
(0.978513 -0.0283047 0)
(0.978323 -0.0278515 0)
(0.978143 -0.0274101 0)
(1.00755 -0.000693921 0)
(1.00758 -0.00231646 0)
(1.00764 -0.00372561 0)
(1.00773 -0.00522775 0)
(1.00783 -0.00664844 0)
(1.00795 -0.00809592 0)
(1.0081 -0.00952356 0)
(1.00825 -0.0109474 0)
(1.00841 -0.0123743 0)
(1.00857 -0.0138038 0)
(1.00874 -0.0152339 0)
(1.0089 -0.0166716 0)
(1.00906 -0.0181111 0)
(1.00922 -0.0195498 0)
(1.00935 -0.0209915 0)
(1.00947 -0.0224327 0)
(1.00957 -0.0238687 0)
(1.00965 -0.0253034 0)
(1.0097 -0.0267288 0)
(1.00971 -0.0281431 0)
(1.0097 -0.0295431 0)
(1.00963 -0.0309202 0)
(1.00955 -0.0322776 0)
(1.0094 -0.0336092 0)
(1.00922 -0.0349103 0)
(1.00899 -0.0361746 0)
(1.00872 -0.0374007 0)
(1.0084 -0.0385828 0)
(1.00803 -0.0397159 0)
(1.00761 -0.0408004 0)
(1.00714 -0.0418283 0)
(1.00663 -0.0427993 0)
(1.00607 -0.0437098 0)
(1.00547 -0.0445561 0)
(1.00483 -0.0453367 0)
(1.00416 -0.046049 0)
(1.00344 -0.0466935 0)
(1.0027 -0.0472678 0)
(1.00193 -0.0477703 0)
(1.00112 -0.0482025 0)
(1.0003 -0.0485639 0)
(0.999454 -0.048856 0)
(0.998604 -0.0490796 0)
(0.997736 -0.049236 0)
(0.996859 -0.0493274 0)
(0.995979 -0.0493558 0)
(0.995098 -0.0493235 0)
(0.994221 -0.0492329 0)
(0.993347 -0.0490864 0)
(0.992482 -0.0488879 0)
(0.991626 -0.0486401 0)
(0.990782 -0.0483464 0)
(0.989954 -0.0480098 0)
(0.989142 -0.047634 0)
(0.988348 -0.0472218 0)
(0.987573 -0.0467768 0)
(0.986819 -0.046302 0)
(0.986087 -0.0458006 0)
(0.985377 -0.0452757 0)
(0.98469 -0.0447302 0)
(0.984027 -0.0441669 0)
(0.983387 -0.0435885 0)
(0.982771 -0.0429975 0)
(0.982177 -0.0423964 0)
(0.981606 -0.0417875 0)
(0.981058 -0.041173 0)
(0.980533 -0.040555 0)
(0.980032 -0.0399354 0)
(0.979553 -0.0393159 0)
(0.979098 -0.0386982 0)
(0.978666 -0.0380838 0)
(0.978255 -0.0374738 0)
(0.977864 -0.0368695 0)
(0.977493 -0.036272 0)
(0.97714 -0.0356822 0)
(0.976805 -0.0351012 0)
(0.976487 -0.0345297 0)
(0.976185 -0.0339684 0)
(0.975898 -0.033418 0)
(0.975627 -0.032879 0)
(0.97537 -0.0323517 0)
(0.975127 -0.0318367 0)
(0.974897 -0.0313343 0)
(0.974679 -0.0308447 0)
(1.00846 -0.000726878 0)
(1.00849 -0.00241721 0)
(1.00856 -0.00389303 0)
(1.00866 -0.00546541 0)
(1.00878 -0.00695223 0)
(1.00893 -0.00846799 0)
(1.00909 -0.00996054 0)
(1.00927 -0.011459 0)
(1.00946 -0.01296 0)
(1.00966 -0.0144623 0)
(1.00986 -0.0159765 0)
(1.01006 -0.0174918 0)
(1.01025 -0.0190125 0)
(1.01044 -0.0205418 0)
(1.01061 -0.0220719 0)
(1.01076 -0.023609 0)
(1.0109 -0.0251475 0)
(1.01101 -0.0266817 0)
(1.01109 -0.0282134 0)
(1.01113 -0.0297394 0)
(1.01113 -0.0312498 0)
(1.0111 -0.0327479 0)
(1.01103 -0.0342248 0)
(1.0109 -0.0356792 0)
(1.01072 -0.0371063 0)
(1.0105 -0.0384986 0)
(1.01022 -0.0398561 0)
(1.00988 -0.0411677 0)
(1.00949 -0.0424337 0)
(1.00905 -0.0436522 0)
(1.00855 -0.0448115 0)
(1.008 -0.0459141 0)
(1.00739 -0.0469541 0)
(1.00673 -0.0479276 0)
(1.00603 -0.048835 0)
(1.00528 -0.049669 0)
(1.00449 -0.0504306 0)
(1.00366 -0.0511189 0)
(1.00279 -0.0517297 0)
(1.00188 -0.0522641 0)
(1.00095 -0.0527211 0)
(1 -0.0531038 0)
(0.999027 -0.053411 0)
(0.998042 -0.0536431 0)
(0.997041 -0.0538042 0)
(0.996032 -0.0538948 0)
(0.99502 -0.0539172 0)
(0.994007 -0.0538733 0)
(0.992997 -0.0537669 0)
(0.991995 -0.0536006 0)
(0.991003 -0.0533776 0)
(0.990022 -0.0531014 0)
(0.989057 -0.0527756 0)
(0.988109 -0.0524038 0)
(0.987181 -0.0519892 0)
(0.986274 -0.0515357 0)
(0.98539 -0.0510468 0)
(0.984531 -0.050526 0)
(0.983696 -0.0499767 0)
(0.982888 -0.0494022 0)
(0.982106 -0.0488059 0)
(0.981352 -0.0481908 0)
(0.980626 -0.0475598 0)
(0.979927 -0.0469159 0)
(0.979258 -0.0462617 0)
(0.978615 -0.0455997 0)
(0.978 -0.0449321 0)
(0.977412 -0.0442611 0)
(0.976848 -0.0435887 0)
(0.976308 -0.0429168 0)
(0.975791 -0.0422472 0)
(0.975298 -0.0415816 0)
(0.974827 -0.0409213 0)
(0.974379 -0.0402676 0)
(0.973953 -0.0396219 0)
(0.973549 -0.0389849 0)
(0.973165 -0.0383578 0)
(0.972802 -0.0377414 0)
(0.972457 -0.0371363 0)
(0.972131 -0.0365432 0)
(0.971822 -0.0359626 0)
(0.97153 -0.035395 0)
(0.971254 -0.034841 0)
(0.970992 -0.0343008 0)
(1.00937 -0.000757595 0)
(1.0094 -0.00251139 0)
(1.00949 -0.00404605 0)
(1.0096 -0.00567821 0)
(1.00974 -0.00722321 0)
(1.00991 -0.00880297 0)
(1.01009 -0.0103585 0)
(1.0103 -0.0119226 0)
(1.01052 -0.0134921 0)
(1.01075 -0.015065 0)
(1.01099 -0.0166482 0)
(1.01122 -0.0182392 0)
(1.01146 -0.0198371 0)
(1.01168 -0.0214461 0)
(1.01189 -0.0230645 0)
(1.01209 -0.02469 0)
(1.01226 -0.0263226 0)
(1.01241 -0.0279553 0)
(1.01252 -0.0295867 0)
(1.0126 -0.0312169 0)
(1.01264 -0.032838 0)
(1.01262 -0.0344515 0)
(1.01257 -0.0360465 0)
(1.01247 -0.0376224 0)
(1.0123 -0.0391716 0)
(1.01208 -0.0406907 0)
(1.01181 -0.0421758 0)
(1.01146 -0.043622 0)
(1.01107 -0.0450245 0)
(1.0106 -0.0463754 0)
(1.01007 -0.0476728 0)
(1.00949 -0.048911 0)
(1.00883 -0.0500843 0)
(1.00812 -0.0511912 0)
(1.00736 -0.0522293 0)
(1.00654 -0.0531927 0)
(1.00568 -0.0540784 0)
(1.00476 -0.0548869 0)
(1.00379 -0.0556156 0)
(1.00279 -0.0562612 0)
(1.00175 -0.0568261 0)
(1.00068 -0.0573087 0)
(0.999593 -0.0577092 0)
(0.998481 -0.0580293 0)
(0.997349 -0.0582684 0)
(0.996205 -0.0584297 0)
(0.995053 -0.0585152 0)
(0.9939 -0.058527 0)
(0.992747 -0.0584686 0)
(0.991598 -0.0583425 0)
(0.990458 -0.0581524 0)
(0.989331 -0.0579016 0)
(0.988219 -0.0575938 0)
(0.987125 -0.0572328 0)
(0.986051 -0.0568225 0)
(0.985001 -0.0563668 0)
(0.983975 -0.0558695 0)
(0.982975 -0.0553347 0)
(0.982004 -0.0547658 0)
(0.981062 -0.0541667 0)
(0.980149 -0.0535408 0)
(0.979267 -0.0528918 0)
(0.978416 -0.0522228 0)
(0.977595 -0.051537 0)
(0.976804 -0.0508375 0)
(0.976044 -0.0501273 0)
(0.975314 -0.0494089 0)
(0.974615 -0.0486851 0)
(0.973947 -0.0479581 0)
(0.973311 -0.0472301 0)
(0.972705 -0.0465032 0)