/*--------------------------------*- C++ -*----------------------------------*\
  =========                 |
  \\      /  F ield         | OpenFOAM: The Open Source CFD Toolbox
   \\    /   O peration     | Website:  https://openfoam.org
    \\  /    A nd           | Version:  10
     \\/     M anipulation  |
\*---------------------------------------------------------------------------*/
FoamFile
{
    format      ascii;
    class       volVectorField;
    location    "0";
    object      U_d;
}
// * * * * * * * * * * * * * * * * * * * * * * * * * * * * * * * * * * * * * //

dimensions      [0 1 -1 0 0 0 0];

internalField   nonuniform List<vector> 
84253
(
(0.000878115 -1.74917e-08 0)
(0.000878095 -6.14067e-08 0)
(0.0008781 -1.03789e-07 0)
(0.000878108 -1.40382e-07 0)
(0.0008781 -1.67714e-07 0)
(0.000878103 -1.97311e-07 0)
(0.00087811 -2.18317e-07 0)
(0.000878108 -2.38448e-07 0)
(0.000878109 -2.53026e-07 0)
(0.00087811 -2.49234e-07 0)
(0.000878113 -2.48666e-07 0)
(0.00087811 -2.40301e-07 0)
(0.000878123 -2.19889e-07 0)
(0.000878125 -1.95149e-07 0)
(0.000878125 -1.61571e-07 0)
(0.000878128 -1.17976e-07 0)
(0.00087814 -6.24861e-08 0)
(0.000878136 -8.99668e-09 0)
(0.000878139 5.57067e-08 0)
(0.000878142 1.30493e-07 0)
(0.000878148 2.11494e-07 0)
(0.000878157 3.01974e-07 0)
(0.000878156 3.98892e-07 0)
(0.000878166 5.0735e-07 0)
(0.000878175 6.1895e-07 0)
(0.000878174 7.37393e-07 0)
(0.000878181 8.61518e-07 0)
(0.000878185 9.93183e-07 0)
(0.000878195 1.13048e-06 0)
(0.000878205 1.26604e-06 0)
(0.00087821 1.41081e-06 0)
(0.000878214 1.55913e-06 0)
(0.000878225 1.71245e-06 0)
(0.000878233 1.86835e-06 0)
(0.000878243 2.02524e-06 0)
(0.000878253 2.18049e-06 0)
(0.00087827 2.33789e-06 0)
(0.00087828 2.49576e-06 0)
(0.00087829 2.65169e-06 0)
(0.000878301 2.80965e-06 0)
(0.000878315 2.96612e-06 0)
(0.000878329 3.12174e-06 0)
(0.000878344 3.2734e-06 0)
(0.000878361 3.42413e-06 0)
(0.000878381 3.5708e-06 0)
(0.0008784 3.71307e-06 0)
(0.000878418 3.85148e-06 0)
(0.000878441 3.98426e-06 0)
(0.000878463 4.11233e-06 0)
(0.000878488 4.23412e-06 0)
(0.000878514 4.35003e-06 0)
(0.000878544 4.45902e-06 0)
(0.000878574 4.56107e-06 0)
(0.000878608 4.65588e-06 0)
(0.000878644 4.74259e-06 0)
(0.000878682 4.82192e-06 0)
(0.000878723 4.89379e-06 0)
(0.000878767 4.9571e-06 0)
(0.000878812 5.01296e-06 0)
(0.000878861 5.06151e-06 0)
(0.000878911 5.10278e-06 0)
(0.000878963 5.13716e-06 0)
(0.000879016 5.16539e-06 0)
(0.000879071 5.18796e-06 0)
(0.000879128 5.20581e-06 0)
(0.000879186 5.21985e-06 0)
(0.000879248 5.23102e-06 0)
(0.000879315 5.24115e-06 0)
(0.000879384 5.25142e-06 0)
(0.000879457 5.26313e-06 0)
(0.000879533 5.27812e-06 0)
(0.000879612 5.29776e-06 0)
(0.000879692 5.32334e-06 0)
(0.000879772 5.35622e-06 0)
(0.000879851 5.39759e-06 0)
(0.000879928 5.44828e-06 0)
(0.000880002 5.50904e-06 0)
(0.000880074 5.58037e-06 0)
(0.000880141 5.66257e-06 0)
(0.000880204 5.75568e-06 0)
(0.000880262 5.85927e-06 0)
(0.000880315 5.97283e-06 0)
(0.000880364 6.09675e-06 0)
(0.000880405 6.2276e-06 0)
(0.000915014 -2.70905e-08 0)
(0.000915032 -7.26406e-08 0)
(0.000915032 -6.96458e-08 0)
(0.000915005 -6.86671e-08 0)
(0.000915005 -7.02005e-08 0)
(0.000914996 -5.50499e-08 0)
(0.000914978 -2.28175e-08 0)
(0.000914969 3.3251e-08 0)
(0.000914942 1.05415e-07 0)
(0.000914915 1.82385e-07 0)
(0.000914906 2.94252e-07 0)
(0.000914879 4.21363e-07 0)
(0.000914834 5.78622e-07 0)
(0.000914807 7.63623e-07 0)
(0.00091478 9.68077e-07 0)
(0.000914735 1.19256e-06 0)
(0.00091469 1.44807e-06 0)
(0.000914672 1.73819e-06 0)
(0.000914627 2.04409e-06 0)
(0.000914591 2.37433e-06 0)
(0.000914537 2.72563e-06 0)
(0.000914483 3.11406e-06 0)
(0.000914447 3.52029e-06 0)
(0.000914384 3.94052e-06 0)
(0.000914339 4.39483e-06 0)
(0.000914294 4.86675e-06 0)
(0.000914249 5.35234e-06 0)
(0.000914186 5.85461e-06 0)
(0.00091415 6.37294e-06 0)
(0.000914096 6.92315e-06 0)
(0.000914033 7.48399e-06 0)
(0.000913988 8.04949e-06 0)
(0.000913925 8.62861e-06 0)
(0.00091388 9.21337e-06 0)
(0.000913835 9.805e-06 0)
(0.00091379 1.04069e-05 0)
(0.000913727 1.10133e-05 0)
(0.000913682 1.16248e-05 0)
(0.000913637 1.22384e-05 0)
(0.000913583 1.28501e-05 0)
(0.000913538 1.346e-05 0)
(0.000913493 1.40678e-05 0)
(0.000913448 1.46758e-05 0)
(0.000913403 1.5277e-05 0)
(0.000913359 1.58755e-05 0)
(0.000913323 1.64706e-05 0)
(0.000913287 1.70582e-05 0)
(0.000913251 1.76414e-05 0)
(0.000913215 1.82168e-05 0)
(0.000913179 1.8786e-05 0)
(0.000913152 1.93475e-05 0)
(0.000913116 1.99015e-05 0)
(0.000913089 2.04484e-05 0)
(0.000913062 2.09878e-05 0)
(0.000913044 2.15194e-05 0)
(0.000913017 2.20435e-05 0)
(0.000912999 2.25588e-05 0)
(0.000912972 2.30671e-05 0)
(0.000912954 2.3567e-05 0)
(0.000912936 2.40581e-05 0)
(0.000912927 2.45407e-05 0)
(0.000912909 2.50141e-05 0)
(0.0009129 2.54776e-05 0)
(0.000912882 2.59307e-05 0)
(0.000912873 2.63728e-05 0)
(0.000912855 2.68025e-05 0)
(0.000912837 2.72187e-05 0)
(0.000912819 2.76195e-05 0)
(0.000912783 2.80033e-05 0)
(0.000912738 2.8368e-05 0)
(0.000912693 2.87114e-05 0)
(0.000912639 2.90313e-05 0)
(0.000912576 2.93259e-05 0)
(0.000912504 2.95929e-05 0)
(0.000912432 2.98306e-05 0)
(0.000912369 3.00372e-05 0)
(0.000912297 3.02114e-05 0)
(0.000912225 3.03522e-05 0)
(0.000912153 3.04588e-05 0)
(0.000912099 3.05311e-05 0)
(0.000912036 3.057e-05 0)
(0.000911991 3.0576e-05 0)
(0.000911946 3.05466e-05 0)
(0.000911919 3.04904e-05 0)
(0.000902861 2.02156e-08 0)
(0.000902924 5.69869e-08 0)
(0.000902888 1.22428e-07 0)
(0.000902879 1.9221e-07 0)
(0.000902843 2.78661e-07 0)
(0.000902798 4.02507e-07 0)
(0.000902744 5.33175e-07 0)
(0.000902681 6.91506e-07 0)
(0.000902636 8.93502e-07 0)
(0.000902573 1.1058e-06 0)
(0.000902492 1.37058e-06 0)
(0.000902411 1.68702e-06 0)
(0.000902321 2.00917e-06 0)
(0.000902222 2.38544e-06 0)
(0.000902132 2.80687e-06 0)
(0.000902033 3.27086e-06 0)
(0.000901907 3.75707e-06 0)
(0.000901782 4.29866e-06 0)
(0.000901674 4.88941e-06 0)
(0.000901539 5.51285e-06 0)
(0.000901404 6.18695e-06 0)
(0.00090126 6.88286e-06 0)
(0.000901125 7.62346e-06 0)
(0.000900981 8.39687e-06 0)
(0.000900819 9.20006e-06 0)
(0.000900675 1.00445e-05 0)
(0.000900531 1.09209e-05 0)
(0.000900378 1.18162e-05 0)
(0.000900189 1.27383e-05 0)
(0.000900009 1.36904e-05 0)
(0.000899857 1.46585e-05 0)
(0.000899704 1.56478e-05 0)
(0.000899542 1.66451e-05 0)
(0.000899383 1.76606e-05 0)
(0.000899213 1.86918e-05 0)
(0.000899044 1.97279e-05 0)
(0.00089888 2.07653e-05 0)
(0.000898714 2.18034e-05 0)
(0.000898549 2.28435e-05 0)
(0.000898394 2.38788e-05 0)
(0.000898235 2.49078e-05 0)
(0.000898062 2.59297e-05 0)
(0.000897904 2.69407e-05 0)
(0.000897741 2.79403e-05 0)
(0.000897573 2.8926e-05 0)
(0.000897404 2.98966e-05 0)
(0.000897239 3.08511e-05 0)
(0.000897067 3.17862e-05 0)
(0.000896896 3.2702e-05 0)
(0.000896722 3.35966e-05 0)
(0.000896545 3.44695e-05 0)
(0.000896364 3.53196e-05 0)
(0.000896177 3.61461e-05 0)
(0.000895989 3.69472e-05 0)
(0.000895794 3.77236e-05 0)
(0.000895595 3.84722e-05 0)
(0.00089539 3.9194e-05 0)
(0.00089518 3.98875e-05 0)
(0.000894963 4.05521e-05 0)
(0.000894739 4.11874e-05 0)
(0.000894509 4.17923e-05 0)
(0.000894273 4.23666e-05 0)
(0.000894028 4.29098e-05 0)
(0.000893776 4.34214e-05 0)
(0.000893519 4.39013e-05 0)
(0.000893261 4.43499e-05 0)
(0.000893001 4.47682e-05 0)
(0.000892744 4.51574e-05 0)
(0.000892494 4.55193e-05 0)
(0.00089225 4.58566e-05 0)
(0.000892015 4.61719e-05 0)
(0.000891789 4.64684e-05 0)
(0.000891572 4.67496e-05 0)
(0.000891364 4.70193e-05 0)
(0.000891166 4.72811e-05 0)
(0.000890978 4.7539e-05 0)
(0.000890802 4.77967e-05 0)
(0.000890637 4.80577e-05 0)
(0.000890484 4.83254e-05 0)
(0.000890345 4.86025e-05 0)
(0.000890219 4.88909e-05 0)
(0.000890106 4.91929e-05 0)
(0.000890006 4.95123e-05 0)
(0.000889918 4.98398e-05 0)
(0.000906531 4.02146e-08 0)
(0.000906549 1.18708e-07 0)
(0.000906513 2.46519e-07 0)
(0.000906486 3.75523e-07 0)
(0.000906414 5.10319e-07 0)
(0.000906351 6.95984e-07 0)
(0.000906279 8.98714e-07 0)
(0.000906189 1.14121e-06 0)
(0.000906081 1.41719e-06 0)
(0.000905973 1.76106e-06 0)
(0.00090582 2.14407e-06 0)
(0.000905695 2.57299e-06 0)
(0.00090556 3.06151e-06 0)
(0.00090538 3.5954e-06 0)
(0.000905209 4.1944e-06 0)
(0.000905038 4.85041e-06 0)
(0.000904858 5.5532e-06 0)
(0.000904642 6.30156e-06 0)
(0.000904426 7.10226e-06 0)
(0.00090421 7.98288e-06 0)
(0.000903985 8.91897e-06 0)
(0.000903761 9.89657e-06 0)
(0.000903518 1.09329e-05 0)
(0.000903284 1.20301e-05 0)
(0.000903032 1.31606e-05 0)
(0.000902771 1.43219e-05 0)
(0.000902537 1.55375e-05 0)
(0.000902285 1.67933e-05 0)
(0.000902024 1.80878e-05 0)
(0.000901764 1.93966e-05 0)
(0.000901512 2.07318e-05 0)
(0.000901269 2.21072e-05 0)
(0.000901017 2.34934e-05 0)
(0.000900756 2.48981e-05 0)
(0.000900513 2.63122e-05 0)
(0.000900288 2.77366e-05 0)
(0.000900063 2.91701e-05 0)
(0.00089983 3.06031e-05 0)
(0.000899614 3.20342e-05 0)
(0.000899407 3.34594e-05 0)
(0.000899202 3.48805e-05 0)
(0.000899009 3.62893e-05 0)
(0.000898819 3.76801e-05 0)
(0.000898636 3.9057e-05 0)
(0.000898459 4.04138e-05 0)
(0.000898291 4.17464e-05 0)
(0.000898133 4.3056e-05 0)
(0.000897981 4.43399e-05 0)
(0.000897836 4.55983e-05 0)
(0.000897696 4.68288e-05 0)
(0.000897564 4.80307e-05 0)
(0.000897435 4.92029e-05 0)
(0.000897314 5.03447e-05 0)
(0.000897201 5.14557e-05 0)
(0.000897096 5.25349e-05 0)
(0.000896998 5.35836e-05 0)
(0.000896906 5.46004e-05 0)
(0.000896822 5.55862e-05 0)
(0.000896746 5.65412e-05 0)
(0.00089668 5.74659e-05 0)
(0.000896625 5.83614e-05 0)
(0.000896581 5.92283e-05 0)
(0.00089655 6.00676e-05 0)
(0.000896531 6.08801e-05 0)
(0.000896525 6.1667e-05 0)
(0.000896529 6.24292e-05 0)
(0.000896541 6.3167e-05 0)
(0.00089656 6.38804e-05 0)
(0.000896584 6.45692e-05 0)
(0.000896613 6.52329e-05 0)
(0.000896645 6.58706e-05 0)
(0.000896683 6.64813e-05 0)
(0.000896727 6.70637e-05 0)
(0.000896776 6.76164e-05 0)
(0.000896831 6.81381e-05 0)
(0.000896892 6.86272e-05 0)
(0.000896957 6.90823e-05 0)
(0.000897028 6.95023e-05 0)
(0.000897099 6.98859e-05 0)
(0.000897172 7.02326e-05 0)
(0.000897245 7.05425e-05 0)
(0.000897316 7.08154e-05 0)
(0.000897385 7.10497e-05 0)
(0.000897449 7.12514e-05 0)
(0.000907736 3.57094e-08 0)
(0.000907718 8.69017e-08 0)
(0.000907673 1.71665e-07 0)
(0.000907611 2.71148e-07 0)
(0.000907539 3.86144e-07 0)
(0.000907422 5.42624e-07 0)
(0.000907305 7.46171e-07 0)
(0.000907161 1.0071e-06 0)
(0.000906999 1.31261e-06 0)
(0.00090681 1.70026e-06 0)
(0.000906621 2.09577e-06 0)
(0.000906396 2.55722e-06 0)
(0.000906162 3.11249e-06 0)
(0.000905901 3.72945e-06 0)
(0.000905632 4.40644e-06 0)
(0.000905362 5.15093e-06 0)
(0.000905056 5.98859e-06 0)
(0.000904759 6.88384e-06 0)
(0.000904417 7.86252e-06 0)
(0.000904048 8.90201e-06 0)
(0.000903707 9.9984e-06 0)
(0.000903356 1.11656e-05 0)
(0.000902969 1.23983e-05 0)
(0.000902582 1.36993e-05 0)
(0.000902222 1.5065e-05 0)
(0.000901836 1.64866e-05 0)
(0.000901431 1.79551e-05 0)
(0.000901026 1.94878e-05 0)
(0.00090063 2.10585e-05 0)
(0.000900243 2.26672e-05 0)
(0.000899848 2.4309e-05 0)
(0.000899448 2.59795e-05 0)
(0.000899083 2.76882e-05 0)
(0.00089872 2.94047e-05 0)
(0.000898348 3.1138e-05 0)
(0.000897977 3.28939e-05 0)
(0.000897625 3.46567e-05 0)
(0.000897289 3.64197e-05 0)
(0.000896969 3.81811e-05 0)
(0.000896657 3.99407e-05 0)
(0.00089635 4.16907e-05 0)
(0.00089607 4.34256e-05 0)
(0.000895795 4.51474e-05 0)
(0.000895535 4.68462e-05 0)
(0.000895291 4.85205e-05 0)
(0.000895061 5.0172e-05 0)
(0.000894839 5.17943e-05 0)
(0.000894625 5.3389e-05 0)
(0.000894423 5.49498e-05 0)
(0.000894234 5.6477e-05 0)
(0.000894055 5.79685e-05 0)
(0.000893888 5.94228e-05 0)
(0.00089373 6.08375e-05 0)
(0.00089358 6.22129e-05 0)
(0.000893439 6.35482e-05 0)
(0.000893307 6.48426e-05 0)
(0.000893181 6.60964e-05 0)
(0.000893061 6.73091e-05 0)
(0.000892945 6.84806e-05 0)
(0.000892831 6.96111e-05 0)
(0.00089272 7.07009e-05 0)
(0.000892609 7.17502e-05 0)
(0.000892497 7.27592e-05 0)
(0.000892381 7.37282e-05 0)
(0.000892265 7.46573e-05 0)
(0.000892148 7.55473e-05 0)
(0.000892033 7.63985e-05 0)
(0.000891922 7.72117e-05 0)
(0.000891817 7.79878e-05 0)
(0.000891717 7.8728e-05 0)
(0.000891622 7.94333e-05 0)
(0.000891533 8.0105e-05 0)
(0.000891448 8.07444e-05 0)
(0.000891365 8.13527e-05 0)
(0.000891286 8.19318e-05 0)
(0.00089121 8.24833e-05 0)
(0.000891138 8.30091e-05 0)
(0.000891073 8.35115e-05 0)
(0.000891012 8.39928e-05 0)
(0.00089096 8.44551e-05 0)
(0.000890917 8.49004e-05 0)
(0.000890884 8.53316e-05 0)
(0.000890861 8.57506e-05 0)
(0.00089085 8.61552e-05 0)
(0.000906567 -1.53173e-08 0)
(0.000906549 -8.65513e-08 0)
(0.000906504 -1.48029e-07 0)
(0.000906414 -1.70349e-07 0)
(0.000906306 -1.36831e-07 0)
(0.000906153 -7.61584e-08 0)
(0.000905964 3.01065e-08 0)
(0.000905766 2.02263e-07 0)
(0.000905542 4.35547e-07 0)
(0.000905281 7.22219e-07 0)
(0.000905029 1.08667e-06 0)
(0.000904714 1.52816e-06 0)
(0.000904363 2.05713e-06 0)
(0.00090403 2.62955e-06 0)
(0.000903653 3.29975e-06 0)
(0.000903248 4.07544e-06 0)
(0.000902834 4.90195e-06 0)
(0.000902375 5.84006e-06 0)
(0.000901907 6.86313e-06 0)
(0.00090144 7.96355e-06 0)
(0.000900945 9.137e-06 0)
(0.000900432 1.04134e-05 0)
(0.000899893 1.17594e-05 0)
(0.000899356 1.31796e-05 0)
(0.000898809 1.46879e-05 0)
(0.000898271 1.62581e-05 0)
(0.00089771 1.79038e-05 0)
(0.000897152 1.95876e-05 0)
(0.0008966 2.13339e-05 0)
(0.000896044 2.31416e-05 0)
(0.000895505 2.49985e-05 0)
(0.000894952 2.68999e-05 0)
(0.000894431 2.88217e-05 0)
(0.000893915 3.0792e-05 0)
(0.000893393 3.27848e-05 0)
(0.000892889 3.47903e-05 0)
(0.000892418 3.68119e-05 0)
(0.000891968 3.8837e-05 0)
(0.000891512 4.08705e-05 0)
(0.000891091 4.29006e-05 0)
(0.000890691 4.49204e-05 0)
(0.000890303 4.69293e-05 0)
(0.000889938 4.89234e-05 0)
(0.000889601 5.09008e-05 0)
(0.000889281 5.28555e-05 0)
(0.000888975 5.47838e-05 0)
(0.000888689 5.66844e-05 0)
(0.000888424 5.85498e-05 0)
(0.000888182 6.03783e-05 0)
(0.000887958 6.21686e-05 0)
(0.000887752 6.39188e-05 0)
(0.000887564 6.5627e-05 0)
(0.000887395 6.72924e-05 0)
(0.000887242 6.8912e-05 0)
(0.000887104 7.04861e-05 0)
(0.000886979 7.20142e-05 0)
(0.000886869 7.34962e-05 0)
(0.000886772 7.49315e-05 0)
(0.000886687 7.63199e-05 0)
(0.000886616 7.76619e-05 0)
(0.000886559 7.89573e-05 0)
(0.000886515 8.0207e-05 0)
(0.000886486 8.14117e-05 0)
(0.000886471 8.25721e-05 0)
(0.00088647 8.36893e-05 0)
(0.000886479 8.47641e-05 0)
(0.000886495 8.57975e-05 0)
(0.000886516 8.67903e-05 0)
(0.000886539 8.77432e-05 0)
(0.000886562 8.8657e-05 0)
(0.000886589 8.95323e-05 0)
(0.00088662 9.03698e-05 0)
(0.000886656 9.11721e-05 0)
(0.000886697 9.19385e-05 0)
(0.000886748 9.26699e-05 0)
(0.000886805 9.33688e-05 0)
(0.000886871 9.40353e-05 0)
(0.000886945 9.46704e-05 0)
(0.000887025 9.52749e-05 0)
(0.00088711 9.58488e-05 0)
(0.000887201 9.63939e-05 0)
(0.000887295 9.69103e-05 0)
(0.000887391 9.73978e-05 0)
(0.000887488 9.78584e-05 0)
(0.000907143 -1.16799e-07 0)
(0.000907125 -4.03844e-07 0)
(0.000907062 -6.43823e-07 0)
(0.000906918 -8.59497e-07 0)
(0.000906774 -1.00034e-06 0)
(0.000906594 -1.09443e-06 0)
(0.000906369 -1.15586e-06 0)
(0.000906108 -1.15884e-06 0)
(0.00090582 -1.07858e-06 0)
(0.000905488 -9.63076e-07 0)
(0.000905128 -7.13893e-07 0)
(0.000904723 -3.83258e-07 0)
(0.0009043 8.7604e-09 0)
(0.00090385 4.93503e-07 0)
(0.000903347 1.07809e-06 0)
(0.000902807 1.75295e-06 0)
(0.000902231 2.53041e-06 0)
(0.000901656 3.42164e-06 0)
(0.000901053 4.39186e-06 0)
(0.000900423 5.448e-06 0)
(0.000899758 6.64622e-06 0)
(0.000899098 7.92031e-06 0)
(0.000898398 9.25394e-06 0)
(0.000897674 1.07043e-05 0)
(0.00089695 1.22467e-05 0)
(0.000896215 1.38911e-05 0)
(0.000895488 1.56094e-05 0)
(0.000894769 1.74154e-05 0)
(0.000894034 1.92616e-05 0)
(0.000893292 2.11701e-05 0)
(0.000892545 2.31572e-05 0)
(0.000891841 2.51846e-05 0)
(0.000891136 2.72748e-05 0)
(0.000890428 2.94171e-05 0)
(0.000889767 3.15864e-05 0)
(0.000889115 3.37712e-05 0)
(0.000888479 3.59761e-05 0)
(0.000887874 3.82093e-05 0)
(0.000887286 4.04513e-05 0)
(0.000886732 4.26943e-05 0)
(0.000886214 4.4941e-05 0)
(0.00088571 4.71796e-05 0)
(0.000885234 4.94029e-05 0)
(0.000884786 5.16102e-05 0)
(0.00088437 5.37998e-05 0)
(0.000883987 5.59614e-05 0)
(0.000883632 5.80952e-05 0)
(0.000883306 6.0194e-05 0)
(0.000883008 6.22567e-05 0)
(0.000882738 6.42793e-05 0)
(0.000882496 6.6259e-05 0)
(0.000882281 6.81951e-05 0)
(0.000882088 7.00854e-05 0)
(0.000881919 7.19287e-05 0)
(0.000881771 7.37224e-05 0)
(0.000881646 7.5467e-05 0)
(0.000881541 7.71612e-05 0)
(0.000881454 7.8805e-05 0)
(0.000881385 8.03982e-05 0)
(0.000881331 8.19395e-05 0)
(0.000881289 8.34296e-05 0)
(0.000881258 8.48687e-05 0)
(0.000881235 8.62575e-05 0)
(0.00088122 8.75964e-05 0)
(0.000881212 8.88856e-05 0)
(0.000881213 9.0126e-05 0)
(0.000881225 9.13179e-05 0)
(0.000881252 9.24621e-05 0)
(0.000881295 9.35604e-05 0)
(0.000881353 9.46146e-05 0)
(0.000881424 9.56239e-05 0)
(0.000881507 9.65918e-05 0)
(0.000881599 9.75183e-05 0)
(0.000881697 9.84044e-05 0)
(0.000881799 9.92517e-05 0)
(0.000881905 0.00010006 0)
(0.000882014 0.000100834 0)
(0.000882126 0.000101572 0)
(0.000882241 0.000102275 0)
(0.000882359 0.000102946 0)
(0.000882479 0.000103587 0)
(0.000882603 0.000104197 0)
(0.000882729 0.000104779 0)
(0.000882858 0.000105334 0)
(0.000907386 -2.36197e-07 0)
(0.000907341 -7.98879e-07 0)
(0.000907287 -1.23472e-06 0)
(0.000907107 -1.69112e-06 0)
(0.000906918 -2.07635e-06 0)
(0.000906702 -2.40313e-06 0)
(0.000906441 -2.6646e-06 0)
(0.000906108 -2.88233e-06 0)
(0.000905766 -2.99932e-06 0)
(0.000905353 -3.05074e-06 0)
(0.000904885 -2.99989e-06 0)
(0.000904408 -2.87905e-06 0)
(0.000903895 -2.67226e-06 0)
(0.00090332 -2.33491e-06 0)
(0.000902708 -1.89443e-06 0)
(0.000902042 -1.35504e-06 0)
(0.000901332 -7.33501e-07 0)
(0.000900612 2.54872e-08 0)
(0.000899857 8.86113e-07 0)
(0.000899051 1.84731e-06 0)
(0.000898193 2.94467e-06 0)
(0.000897323 4.14992e-06 0)
(0.000896482 5.46432e-06 0)
(0.000895567 6.89453e-06 0)
(0.000894655 8.39163e-06 0)
(0.000893715 9.9894e-06 0)
(0.000892786 1.17037e-05 0)
(0.000891863 1.3492e-05 0)
(0.00089095 1.53977e-05 0)
(0.000889986 1.73963e-05 0)
(0.000889058 1.94385e-05 0)
(0.000888144 2.15575e-05 0)
(0.000887222 2.37278e-05 0)
(0.000886342 2.59333e-05 0)
(0.000885498 2.82038e-05 0)
(0.000884674 3.05166e-05 0)
(0.000883853 3.28687e-05 0)
(0.00088306 3.52464e-05 0)
(0.00088232 3.76431e-05 0)
(0.000881605 4.00469e-05 0)
(0.000880927 4.24565e-05 0)
(0.000880291 4.48719e-05 0)
(0.00087969 4.72749e-05 0)
(0.000879121 4.967e-05 0)
(0.000878587 5.20466e-05 0)
(0.000878095 5.44032e-05 0)
(0.000877643 5.67329e-05 0)
(0.000877229 5.90308e-05 0)
(0.000876856 6.12945e-05 0)
(0.000876518 6.352e-05 0)
(0.000876215 6.57036e-05 0)
(0.000875945 6.78433e-05 0)
(0.000875708 6.99371e-05 0)
(0.000875501 7.1982e-05 0)
(0.000875323 7.39769e-05 0)
(0.000875174 7.59204e-05 0)
(0.000875051 7.78105e-05 0)
(0.000874953 7.96475e-05 0)
(0.00087488 8.14296e-05 0)
(0.000874829 8.31566e-05 0)
(0.0008748 8.48284e-05 0)
(0.000874793 8.64449e-05 0)
(0.000874809 8.80065e-05 0)
(0.000874847 8.95132e-05 0)
(0.000874904 9.09661e-05 0)
(0.000874979 9.23667e-05 0)
(0.000875065 9.37142e-05 0)
(0.000875158 9.50104e-05 0)
(0.000875256 9.62563e-05 0)
(0.000875356 9.74527e-05 0)
(0.000875459 9.86005e-05 0)
(0.000875566 9.97015e-05 0)
(0.00087568 0.000100756 0)
(0.000875801 0.000101767 0)
(0.000875932 0.000102734 0)
(0.00087607 0.000103659 0)
(0.000876217 0.000104545 0)
(0.000876372 0.000105391 0)
(0.000876534 0.000106201 0)
(0.000876703 0.000106973 0)
(0.000876875 0.000107712 0)
(0.000877052 0.000108417 0)
(0.000877231 0.00010909 0)
(0.000877413 0.000109731 0)
(0.00090779 -3.52156e-07 0)
(0.000907718 -1.20635e-06 0)
(0.000907628 -1.88669e-06 0)
(0.000907449 -2.57207e-06 0)
(0.000907224 -3.21604e-06 0)
(0.000906954 -3.81938e-06 0)
(0.000906657 -4.29527e-06 0)
(0.000906279 -4.73929e-06 0)
(0.000905856 -5.08328e-06 0)
(0.000905371 -5.3323e-06 0)
(0.000904849 -5.52095e-06 0)
(0.000904291 -5.62476e-06 0)
(0.000903653 -5.60686e-06 0)
(0.000902951 -5.46033e-06 0)
(0.000902213 -5.21935e-06 0)
(0.000901449 -4.87291e-06 0)
(0.000900621 -4.41926e-06 0)
(0.000899731 -3.84815e-06 0)
(0.000898818 -3.13992e-06 0)
(0.000897843 -2.29523e-06 0)
(0.000896825 -1.3473e-06 0)
(0.000895774 -2.75875e-07 0)
(0.000894719 9.22462e-07 0)
(0.000893631 2.24468e-06 0)
(0.000892483 3.67106e-06 0)
(0.000891357 5.20917e-06 0)
(0.00089021 6.8603e-06 0)
(0.000889033 8.65138e-06 0)
(0.000887891 1.05136e-05 0)
(0.000886726 1.246e-05 0)
(0.000885615 1.45193e-05 0)
(0.000884484 1.66337e-05 0)
(0.000883378 1.88417e-05 0)
(0.000882282 2.11056e-05 0)
(0.000881193 2.34338e-05 0)
(0.000880161 2.5822e-05 0)
(0.00087915 2.82507e-05 0)
(0.000878179 3.07073e-05 0)
(0.00087725 3.31984e-05 0)
(0.000876372 3.57242e-05 0)
(0.00087552 3.82609e-05 0)
(0.000874728 4.08047e-05 0)
(0.000873971 4.33491e-05 0)
(0.000873259 4.589e-05 0)
(0.000872593 4.8415e-05 0)
(0.000871981 5.0923e-05 0)
(0.000871419 5.34111e-05 0)
(0.000870905 5.58716e-05 0)
(0.000870438 5.83015e-05 0)
(0.000870015 6.06973e-05 0)
(0.000869637 6.30526e-05 0)
(0.000869302 6.53663e-05 0)
(0.000869009 6.76344e-05 0)
(0.000868755 6.9855e-05 0)
(0.000868539 7.20255e-05 0)
(0.000868361 7.41434e-05 0)
(0.000868217 7.62085e-05 0)
(0.000868107 7.82179e-05 0)
(0.000868027 8.01717e-05 0)
(0.000867974 8.2069e-05 0)
(0.000867947 8.39095e-05 0)
(0.000867943 8.56934e-05 0)
(0.000867957 8.74196e-05 0)
(0.000867988 8.90891e-05 0)
(0.000868035 9.07017e-05 0)
(0.000868099 9.22588e-05 0)
(0.000868183 9.3761e-05 0)
(0.000868288 9.52074e-05 0)
(0.000868415 9.65999e-05 0)
(0.000868564 9.79402e-05 0)
(0.000868732 9.92284e-05 0)
(0.000868915 0.000100466 0)
(0.000869111 0.000101654 0)
(0.000869316 0.000102794 0)
(0.000869529 0.000103887 0)
(0.000869746 0.000104935 0)
(0.000869969 0.000105938 0)
(0.000870194 0.000106898 0)
(0.000870423 0.000107816 0)
(0.000870654 0.000108694 0)
(0.000870888 0.000109533 0)
(0.000871123 0.000110336 0)
(0.000871358 0.000111101 0)
(0.000871594 0.000111832 0)
(0.000908429 -4.58538e-07 0)
(0.000908348 -1.56234e-06 0)
(0.000908222 -2.49765e-06 0)
(0.000908033 -3.44351e-06 0)
(0.000907817 -4.30945e-06 0)
(0.000907485 -5.15926e-06 0)
(0.000907125 -5.87911e-06 0)
(0.000906711 -6.52723e-06 0)
(0.000906216 -7.11064e-06 0)
(0.000905677 -7.60352e-06 0)
(0.000905092 -8.0178e-06 0)
(0.000904435 -8.32131e-06 0)
(0.000903689 -8.50031e-06 0)
(0.000902888 -8.56819e-06 0)
(0.00090206 -8.55922e-06 0)
(0.000901161 -8.42491e-06 0)
(0.000900198 -8.13894e-06 0)
(0.000899169 -7.75937e-06 0)
(0.000898073 -7.23157e-06 0)
(0.000896938 -6.5697e-06 0)
(0.000895772 -5.79302e-06 0)
(0.000894558 -4.88856e-06 0)
(0.000893269 -3.85317e-06 0)
(0.000891992 -2.6557e-06 0)
(0.000890663 -1.35724e-06 0)
(0.000889312 8.35874e-08 0)
(0.000887924 1.64536e-06 0)
(0.000886526 3.32779e-06 0)
(0.000885117 5.12304e-06 0)
(0.000883756 7.00078e-06 0)
(0.000882392 9.0108e-06 0)
(0.000881013 1.11381e-05 0)
(0.000879711 1.33168e-05 0)
(0.000878388 1.55608e-05 0)
(0.00087709 1.78914e-05 0)
(0.000875816 2.02972e-05 0)
(0.000874606 2.27736e-05 0)
(0.000873424 2.52917e-05 0)
(0.000872286 2.78535e-05 0)
(0.000871198 3.0435e-05 0)
(0.000870176 3.30418e-05 0)
(0.000869193 3.56729e-05 0)
(0.00086827 3.83245e-05 0)
(0.000867404 4.09743e-05 0)
(0.000866599 4.3622e-05 0)
(0.000865846 4.62585e-05 0)
(0.000865148 4.88746e-05 0)
(0.000864509 5.1474e-05 0)
(0.000863926 5.40464e-05 0)
(0.000863399 5.65898e-05 0)
(0.000862927 5.9101e-05 0)
(0.000862509 6.15709e-05 0)
(0.00086214 6.40013e-05 0)
(0.000861821 6.63823e-05 0)
(0.000861547 6.8716e-05 0)
(0.000861321 7.09991e-05 0)
(0.000861135 7.32293e-05 0)
(0.000860992 7.54059e-05 0)
(0.000860886 7.75256e-05 0)
(0.000860818 7.95884e-05 0)
(0.000860784 8.15931e-05 0)
(0.000860785 8.35385e-05 0)
(0.00086082 8.54247e-05 0)
(0.000860886 8.72505e-05 0)
(0.000860983 8.90167e-05 0)
(0.000861106 9.07233e-05 0)
(0.000861249 9.23703e-05 0)
(0.000861407 9.39598e-05 0)
(0.000861575 9.54917e-05 0)
(0.000861752 9.69678e-05 0)
(0.000861938 9.83882e-05 0)
(0.000862132 9.97537e-05 0)
(0.000862337 0.000101066 0)
(0.000862552 0.000102327 0)
(0.00086278 0.000103537 0)
(0.000863018 0.000104698 0)
(0.000863267 0.000105811 0)
(0.000863524 0.000106877 0)
(0.00086379 0.000107899 0)
(0.000864061 0.000108877 0)
(0.000864338 0.000109813 0)
(0.000864618 0.000110708 0)
(0.0008649 0.000111565 0)
(0.000865182 0.000112382 0)
(0.000909149 -5.57124e-07 0)
(0.000909068 -1.87927e-06 0)
(0.000908942 -3.03503e-06 0)
(0.000908726 -4.235e-06 0)
(0.000908492 -5.292e-06 0)
(0.000908132 -6.32703e-06 0)
(0.000907709 -7.28048e-06 0)
(0.000907251 -8.16101e-06 0)
(0.000906729 -8.95658e-06 0)
(0.000906126 -9.66188e-06 0)
(0.000905461 -1.02872e-05 0)
(0.000904714 -1.07738e-05 0)
(0.000903868 -1.11624e-05 0)
(0.000902996 -1.14892e-05 0)
(0.000902069 -1.16767e-05 0)
(0.000901026 -1.17315e-05 0)
(0.000899937 -1.16644e-05 0)
(0.000898779 -1.14648e-05 0)
(0.000897535 -1.11418e-05 0)
(0.000896247 -1.06964e-05 0)
(0.000894914 -1.01036e-05 0)
(0.000893508 -9.36962e-06 0)
(0.000892025 -8.50312e-06 0)
(0.000890541 -7.47669e-06 0)
(0.000889019 -6.31937e-06 0)
(0.000887448 -5.01909e-06 0)
(0.00088584 -3.59701e-06 0)
(0.000884235 -2.05223e-06 0)
(0.000882615 -3.73678e-07 0)
(0.000881003 1.4302e-06 0)
(0.000879361 3.34444e-06 0)
(0.000877749 5.3791e-06 0)
(0.000876153 7.512e-06 0)
(0.000874604 9.74608e-06 0)
(0.000873084 1.20865e-05 0)
(0.000871574 1.44684e-05 0)
(0.000870134 1.69111e-05 0)
(0.00086872 1.94305e-05 0)
(0.000867379 2.20122e-05 0)
(0.00086609 2.46391e-05 0)
(0.000864852 2.73178e-05 0)
(0.000863663 3.00075e-05 0)
(0.000862553 3.27162e-05 0)
(0.000861508 3.54409e-05 0)
(0.000860526 3.8172e-05 0)
(0.000859613 4.09056e-05 0)
(0.000858765 4.36373e-05 0)
(0.000857981 4.63536e-05 0)
(0.000857267 4.90488e-05 0)
(0.000856615 5.1717e-05 0)
(0.00085603 5.43526e-05 0)
(0.000855507 5.69539e-05 0)
(0.000855047 5.9516e-05 0)
(0.000854644 6.20372e-05 0)
(0.000854297 6.45119e-05 0)
(0.000854003 6.69375e-05 0)
(0.000853761 6.93111e-05 0)
(0.000853567 7.16297e-05 0)
(0.000853421 7.38931e-05 0)
(0.000853317 7.60991e-05 0)
(0.000853254 7.82464e-05 0)
(0.000853228 8.03351e-05 0)
(0.000853236 8.2364e-05 0)
(0.000853272 8.43331e-05 0)
(0.000853338 8.62423e-05 0)
(0.000853429 8.80912e-05 0)
(0.000853548 8.98806e-05 0)
(0.000853696 9.16102e-05 0)
(0.000853874 9.32797e-05 0)
(0.00085408 9.48908e-05 0)
(0.000854311 9.64443e-05 0)
(0.000854564 9.79402e-05 0)
(0.000854834 9.93795e-05 0)
(0.000855117 0.000100764 0)
(0.000855412 0.000102095 0)
(0.000855716 0.000103372 0)
(0.000856026 0.000104599 0)
(0.000856343 0.000105776 0)
(0.000856665 0.000106904 0)
(0.000856991 0.000107985 0)
(0.00085732 0.000109021 0)
(0.000857651 0.000110013 0)
(0.000857984 0.000110961 0)
(0.000858315 0.000111868 0)
(0.000909976 -6.50686e-07 0)
(0.000909895 -2.17602e-06 0)
(0.000909769 -3.50336e-06 0)
(0.000909536 -4.89689e-06 0)
(0.000909266 -6.13065e-06 0)
(0.000908888 -7.33136e-06 0)
(0.000908456 -8.46872e-06 0)
(0.000907952 -9.56545e-06 0)
(0.000907359 -1.05491e-05 0)
(0.00090672 -1.14403e-05 0)
(0.000905973 -1.22445e-05 0)
(0.000905137 -1.29437e-05 0)
(0.000904264 -1.35466e-05 0)
(0.000903311 -1.40781e-05 0)
(0.00090224 -1.44638e-05 0)
(0.000901107 -1.47221e-05 0)
(0.000899884 -1.4883e-05 0)
(0.000898596 -1.48906e-05 0)
(0.000897229 -1.47706e-05 0)
(0.000895781 -1.45217e-05 0)
(0.000894276 -1.41264e-05 0)
(0.000892708 -1.3585e-05 0)
(0.000891038 -1.29165e-05 0)
(0.000889346 -1.20954e-05 0)
(0.000887614 -1.11105e-05 0)
(0.000885844 -9.98679e-06 0)
(0.000884034 -8.72301e-06 0)
(0.000882203 -7.32316e-06 0)
(0.000880341 -5.79874e-06 0)
(0.000878478 -4.11471e-06 0)
(0.000876594 -2.3237e-06 0)
(0.000874751 -4.02134e-07 0)
(0.000872895 1.66065e-06 0)
(0.00087108 3.80635e-06 0)
(0.000869287 6.05684e-06 0)
(0.000867539 8.41258e-06 0)
(0.00086584 1.08609e-05 0)
(0.00086419 1.33747e-05 0)
(0.000862606 1.59601e-05 0)
(0.000861103 1.85696e-05 0)
(0.000859625 2.12177e-05 0)
(0.000858249 2.39461e-05 0)
(0.00085692 2.67186e-05 0)
(0.00085567 2.95013e-05 0)
(0.000854498 3.23165e-05 0)
(0.000853405 3.51331e-05 0)
(0.000852383 3.79367e-05 0)
(0.000851445 4.07426e-05 0)
(0.000850577 4.35322e-05 0)
(0.000849794 4.63145e-05 0)
(0.000849076 4.90715e-05 0)
(0.000848436 5.17987e-05 0)
(0.00084786 5.44944e-05 0)
(0.000847356 5.71438e-05 0)
(0.000846918 5.97551e-05 0)
(0.000846545 6.23184e-05 0)
(0.000846234 6.48334e-05 0)
(0.000845979 6.72977e-05 0)
(0.00084578 6.97066e-05 0)
(0.000845634 7.20589e-05 0)
(0.000845537 7.4352e-05 0)
(0.000845489 7.65851e-05 0)
(0.000845487 7.87567e-05 0)
(0.00084553 8.08658e-05 0)
(0.000845615 8.29116e-05 0)
(0.000845737 8.48944e-05 0)
(0.000845891 8.68142e-05 0)
(0.000846072 8.86712e-05 0)
(0.000846274 9.0466e-05 0)
(0.000846494 9.21994e-05 0)
(0.00084673 9.38725e-05 0)
(0.000846983 9.54854e-05 0)
(0.000847253 9.70398e-05 0)
(0.00084754 9.85357e-05 0)
(0.000847843 9.9975e-05 0)
(0.000848161 0.000101358 0)
(0.000848494 0.000102688 0)
(0.000848839 0.000103964 0)
(0.000849193 0.000105189 0)
(0.000849556 0.000106363 0)
(0.000849924 0.00010749 0)
(0.000850297 0.000108569 0)
(0.000850671 0.000109603 0)
(0.000851046 0.000110591 0)
(0.000910885 -7.32933e-07 0)
(0.000910795 -2.44127e-06 0)
(0.000910669 -3.89488e-06 0)
(0.000910426 -5.43006e-06 0)
(0.00091012 -6.8127e-06 0)
(0.000909724 -8.18713e-06 0)
(0.000909284 -9.49331e-06 0)
(0.000908744 -1.07339e-05 0)
(0.000908114 -1.18826e-05 0)
(0.000907413 -1.2967e-05 0)
(0.00090663 -1.39265e-05 0)
(0.000905739 -1.48432e-05 0)
(0.000904795 -1.56686e-05 0)
(0.000903761 -1.63574e-05 0)
(0.0009026 -1.69554e-05 0)
(0.000901377 -1.7435e-05 0)
(0.000900054 -1.7792e-05 0)
(0.000898627 -1.8027e-05 0)
(0.000897126 -1.81241e-05 0)
(0.000895547 -1.80826e-05 0)
(0.000893884 -1.79156e-05 0)
(0.000892155 -1.75794e-05 0)
(0.000890327 -1.71239e-05 0)
(0.00088843 -1.65212e-05 0)
(0.000886495 -1.57542e-05 0)
(0.000884513 -1.48382e-05 0)
(0.000882485 -1.37646e-05 0)
(0.000880448 -1.25505e-05 0)
(0.000878347 -1.11898e-05 0)
(0.000876246 -9.67061e-06 0)
(0.000874141 -8.03088e-06 0)
(0.000872027 -6.25146e-06 0)
(0.000869914 -4.33241e-06 0)
(0.000867835 -2.30082e-06 0)
(0.000865791 -1.31973e-07 0)
(0.000863791 2.13938e-06 0)
(0.000861817 4.50223e-06 0)
(0.000859914 6.96539e-06 0)
(0.000858068 9.53046e-06 0)
(0.000856283 1.21269e-05 0)