/*--------------------------------*- C++ -*----------------------------------*\
  =========                 |
  \\      /  F ield         | OpenFOAM: The Open Source CFD Toolbox
   \\    /   O peration     | Website:  https://openfoam.org
    \\  /    A nd           | Version:  10
     \\/     M anipulation  |
\*---------------------------------------------------------------------------*/
FoamFile
{
    format      ascii;
    class       volVectorField;
    location    "0";
    object      U_d2;
}
// * * * * * * * * * * * * * * * * * * * * * * * * * * * * * * * * * * * * * //

dimensions      [0 1 -1 0 0 0 0];

internalField   nonuniform List<vector> 
84253
(
(0.000844382 -2.64733e-08 0)
(0.000844359 -1.33369e-07 0)
(0.000844365 -2.38854e-07 0)
(0.00084437 -3.2337e-07 0)
(0.000844369 -4.0293e-07 0)
(0.000844369 -4.76516e-07 0)
(0.000844378 -5.41432e-07 0)
(0.000844377 -6.01975e-07 0)
(0.000844379 -6.57544e-07 0)
(0.000844378 -6.94918e-07 0)
(0.000844383 -7.27431e-07 0)
(0.000844383 -7.5221e-07 0)
(0.00084439 -7.64204e-07 0)
(0.000844395 -7.74747e-07 0)
(0.000844398 -7.72162e-07 0)
(0.000844403 -7.54594e-07 0)
(0.000844413 -7.39968e-07 0)
(0.000844414 -6.99308e-07 0)
(0.000844414 -6.71593e-07 0)
(0.000844416 -6.19221e-07 0)
(0.000844425 -5.64371e-07 0)
(0.000844431 -5.01777e-07 0)
(0.000844434 -4.2512e-07 0)
(0.000844441 -3.45447e-07 0)
(0.000844453 -2.48537e-07 0)
(0.000844452 -1.66626e-07 0)
(0.000844459 -5.93205e-08 0)
(0.000844461 4.52596e-08 0)
(0.000844472 1.60647e-07 0)
(0.000844479 2.82365e-07 0)
(0.000844485 3.92759e-07 0)
(0.000844495 5.13701e-07 0)
(0.000844511 6.44877e-07 0)
(0.00084452 7.76296e-07 0)
(0.00084453 8.99862e-07 0)
(0.000844545 1.02711e-06 0)
(0.00084456 1.15376e-06 0)
(0.000844575 1.2816e-06 0)
(0.000844587 1.40608e-06 0)
(0.0008446 1.51946e-06 0)
(0.000844617 1.63284e-06 0)
(0.000844635 1.74658e-06 0)
(0.000844654 1.85563e-06 0)
(0.000844673 1.95858e-06 0)
(0.000844695 2.05501e-06 0)
(0.000844716 2.14354e-06 0)
(0.000844739 2.22406e-06 0)
(0.000844762 2.29598e-06 0)
(0.00084479 2.35834e-06 0)
(0.000844816 2.41109e-06 0)
(0.000844846 2.45367e-06 0)
(0.000844876 2.48579e-06 0)
(0.000844908 2.50708e-06 0)
(0.000844942 2.51809e-06 0)
(0.000844978 2.5177e-06 0)
(0.000845015 2.50755e-06 0)
(0.000845055 2.48773e-06 0)
(0.000845096 2.45813e-06 0)
(0.000845141 2.4204e-06 0)
(0.000845186 2.37536e-06 0)
(0.000845235 2.32403e-06 0)
(0.000845287 2.26763e-06 0)
(0.00084534 2.20787e-06 0)
(0.000845396 2.14609e-06 0)
(0.000845454 2.08411e-06 0)
(0.000845515 2.0237e-06 0)
(0.000845576 1.96641e-06 0)
(0.00084564 1.91457e-06 0)
(0.000845708 1.86976e-06 0)
(0.000845777 1.83369e-06 0)
(0.00084585 1.80837e-06 0)
(0.000845925 1.79545e-06 0)
(0.000846 1.79638e-06 0)
(0.000846076 1.81264e-06 0)
(0.000846153 1.84545e-06 0)
(0.000846228 1.89561e-06 0)
(0.0008463 1.96375e-06 0)
(0.000846371 2.05017e-06 0)
(0.000846439 2.15491e-06 0)
(0.000846502 2.27764e-06 0)
(0.000846561 2.4174e-06 0)
(0.000846616 2.57317e-06 0)
(0.000846665 2.74545e-06 0)
(0.000846706 2.92921e-06 0)
(0.000902487 -1.47371e-07 0)
(0.000902485 -4.64323e-07 0)
(0.000902485 -6.83813e-07 0)
(0.000902459 -9.34051e-07 0)
(0.000902459 -1.15609e-06 0)
(0.00090245 -1.36634e-06 0)
(0.000902422 -1.55122e-06 0)
(0.000902424 -1.70569e-06 0)
(0.000902397 -1.83582e-06 0)
(0.000902381 -1.94802e-06 0)
(0.000902362 -2.02964e-06 0)
(0.000902336 -2.08685e-06 0)
(0.000902302 -2.10491e-06 0)
(0.000902285 -2.10234e-06 0)
(0.000902259 -2.05295e-06 0)
(0.000902225 -2.00459e-06 0)
(0.000902171 -1.90326e-06 0)
(0.000902173 -1.76877e-06 0)
(0.000902109 -1.62183e-06 0)
(0.000902124 -1.439e-06 0)
(0.000902041 -1.25269e-06 0)
(0.000902038 -9.95179e-07 0)
(0.000901973 -7.39668e-07 0)
(0.000901951 -4.65447e-07 0)
(0.000901907 -1.67197e-07 0)
(0.000901883 1.78241e-07 0)
(0.000901849 5.37296e-07 0)
(0.000901797 9.0138e-07 0)
(0.000901772 1.2772e-06 0)
(0.000901729 1.65e-06 0)
(0.000901707 2.06831e-06 0)
(0.000901683 2.48432e-06 0)
(0.000901661 2.93027e-06 0)
(0.000901627 3.37632e-06 0)
(0.000901603 3.83105e-06 0)
(0.000901579 4.29847e-06 0)
(0.000901547 4.76929e-06 0)
(0.000901523 5.24784e-06 0)
(0.000901509 5.72815e-06 0)
(0.000901496 6.21245e-06 0)
(0.000901492 6.69485e-06 0)
(0.000901497 7.1829e-06 0)
(0.000901503 7.66984e-06 0)
(0.000901508 8.15787e-06 0)
(0.000901524 8.64477e-06 0)
(0.000901548 9.13189e-06 0)
(0.000901573 9.61917e-06 0)
(0.000901597 1.01052e-05 0)
(0.000901631 1.05912e-05 0)
(0.000901676 1.1076e-05 0)
(0.000901729 1.15592e-05 0)
(0.000901783 1.20415e-05 0)
(0.000901846 1.25218e-05 0)
(0.000901909 1.30004e-05 0)
(0.00090197 1.34784e-05 0)
(0.000902053 1.39536e-05 0)
(0.000902125 1.44264e-05 0)
(0.000902198 1.48971e-05 0)
(0.000902279 1.53648e-05 0)
(0.000902361 1.58284e-05 0)
(0.000902432 1.62874e-05 0)
(0.000902503 1.6741e-05 0)
(0.000902564 1.71882e-05 0)
(0.000902626 1.76276e-05 0)
(0.000902677 1.80578e-05 0)
(0.000902728 1.84768e-05 0)
(0.00090276 1.8883e-05 0)
(0.000902783 1.92739e-05 0)
(0.000902807 1.96473e-05 0)
(0.000902803 2.00009e-05 0)
(0.000902798 2.03317e-05 0)
(0.000902775 2.06369e-05 0)
(0.000902744 2.09139e-05 0)
(0.000902713 2.11595e-05 0)
(0.000902662 2.13712e-05 0)
(0.000902611 2.15462e-05 0)
(0.00090255 2.16825e-05 0)
(0.0009025 2.17784e-05 0)
(0.000902439 2.18324e-05 0)
(0.000902387 2.18439e-05 0)
(0.000902335 2.18137e-05 0)
(0.000902301 2.17419e-05 0)
(0.000902267 2.16247e-05 0)
(0.00090224 2.14736e-05 0)
(0.000877247 -1.99143e-07 0)
(0.000877298 -6.85675e-07 0)
(0.0008773 -1.07204e-06 0)
(0.000877273 -1.4779e-06 0)
(0.000877236 -1.83217e-06 0)
(0.000877193 -2.15382e-06 0)
(0.000877141 -2.44574e-06 0)
(0.000877073 -2.69912e-06 0)
(0.000877019 -2.89931e-06 0)
(0.000876954 -3.07209e-06 0)
(0.000876878 -3.18302e-06 0)
(0.000876794 -3.24779e-06 0)
(0.000876703 -3.27664e-06 0)
(0.000876597 -3.25961e-06 0)
(0.000876503 -3.17857e-06 0)
(0.000876387 -3.06464e-06 0)
(0.000876288 -2.89769e-06 0)
(0.000876144 -2.68457e-06 0)
(0.000876032 -2.42105e-06 0)
(0.000875918 -2.13168e-06 0)
(0.000875768 -1.77319e-06 0)
(0.00087564 -1.36181e-06 0)
(0.000875509 -9.5227e-07 0)
(0.000875387 -4.67573e-07 0)
(0.000875218 3.4192e-08 0)
(0.000875086 5.85487e-07 0)
(0.000874947 1.16157e-06 0)
(0.000874774 1.72473e-06 0)
(0.000874622 2.33474e-06 0)
(0.000874446 2.97764e-06 0)
(0.000874314 3.63926e-06 0)
(0.000874153 4.32946e-06 0)
(0.000874006 5.02796e-06 0)
(0.000873848 5.74995e-06 0)
(0.000873685 6.48519e-06 0)
(0.000873519 7.2294e-06 0)
(0.000873362 7.97813e-06 0)
(0.000873197 8.72763e-06 0)
(0.000873033 9.48174e-06 0)
(0.00087287 1.02345e-05 0)
(0.00087271 1.09876e-05 0)
(0.00087254 1.17374e-05 0)
(0.000872373 1.24809e-05 0)
(0.000872204 1.32177e-05 0)
(0.000872027 1.39471e-05 0)
(0.000871845 1.46671e-05 0)
(0.000871658 1.53752e-05 0)
(0.00087147 1.60696e-05 0)
(0.000871273 1.67482e-05 0)
(0.000871076 1.741e-05 0)
(0.000870871 1.80536e-05 0)
(0.000870662 1.86775e-05 0)
(0.000870446 1.92811e-05 0)
(0.000870221 1.98626e-05 0)
(0.000869991 2.04207e-05 0)
(0.000869755 2.09547e-05 0)
(0.000869512 2.14626e-05 0)
(0.000869261 2.19443e-05 0)
(0.000869004 2.23983e-05 0)
(0.000868743 2.28246e-05 0)
(0.000868476 2.32224e-05 0)
(0.000868203 2.35921e-05 0)
(0.000867924 2.39336e-05 0)
(0.000867642 2.42477e-05 0)
(0.000867356 2.45355e-05 0)
(0.000867067 2.4798e-05 0)
(0.000866776 2.50374e-05 0)
(0.000866484 2.52554e-05 0)
(0.000866194 2.5455e-05 0)
(0.000865906 2.56393e-05 0)
(0.000865624 2.58119e-05 0)
(0.000865349 2.59768e-05 0)
(0.000865081 2.61383e-05 0)
(0.000864823 2.63008e-05 0)
(0.000864575 2.64687e-05 0)
(0.00086434 2.66467e-05 0)
(0.000864118 2.6839e-05 0)
(0.00086391 2.70497e-05 0)
(0.000863715 2.72822e-05 0)
(0.000863536 2.75395e-05 0)
(0.000863373 2.7823e-05 0)
(0.000863224 2.81355e-05 0)
(0.000863091 2.84817e-05 0)
(0.000862971 2.88488e-05 0)
(0.00088812 -2.73314e-07 0)
(0.000888118 -9.2788e-07 0)
(0.000888103 -1.45751e-06 0)
(0.000888056 -1.99472e-06 0)
(0.000887996 -2.47098e-06 0)
(0.000887934 -2.92585e-06 0)
(0.000887854 -3.30521e-06 0)
(0.000887756 -3.65313e-06 0)
(0.000887661 -3.9414e-06 0)
(0.000887545 -4.15725e-06 0)
(0.000887405 -4.31709e-06 0)
(0.000887282 -4.40872e-06 0)
(0.00088714 -4.44086e-06 0)
(0.000886975 -4.41418e-06 0)
(0.000886807 -4.30852e-06 0)
(0.00088664 -4.15195e-06 0)
(0.000886484 -3.91459e-06 0)
(0.000886273 -3.62986e-06 0)
(0.000886062 -3.2833e-06 0)
(0.000885851 -2.85382e-06 0)
(0.000885651 -2.38626e-06 0)
(0.000885431 -1.84671e-06 0)
(0.000885223 -1.25586e-06 0)
(0.000885024 -6.13245e-07 0)
(0.000884758 7.07961e-08 0)
(0.000884563 8.66529e-07 0)
(0.000884304 1.58519e-06 0)
(0.000884128 2.37267e-06 0)
(0.000883892 3.2612e-06 0)
(0.000883677 4.10265e-06 0)
(0.000883441 5.01646e-06 0)
(0.000883233 5.94918e-06 0)
(0.000883007 6.91361e-06 0)
(0.000882781 7.89321e-06 0)
(0.000882574 8.88779e-06 0)
(0.000882374 9.89398e-06 0)
(0.000882173 1.09119e-05 0)
(0.000881985 1.1935e-05 0)
(0.000881803 1.29615e-05 0)
(0.000881611 1.39836e-05 0)
(0.000881438 1.50118e-05 0)
(0.000881274 1.6033e-05 0)
(0.000881109 1.70495e-05 0)
(0.000880943 1.80599e-05 0)
(0.000880797 1.90596e-05 0)
(0.000880649 2.00473e-05 0)
(0.00088051 2.10201e-05 0)
(0.00088039 2.1979e-05 0)
(0.00088027 2.29223e-05 0)
(0.000880158 2.38502e-05 0)
(0.000880056 2.47613e-05 0)
(0.000879963 2.56556e-05 0)
(0.000879879 2.6533e-05 0)
(0.000879801 2.73929e-05 0)
(0.000879737 2.82352e-05 0)
(0.000879686 2.90598e-05 0)
(0.000879648 2.98672e-05 0)
(0.000879621 3.06575e-05 0)
(0.000879606 3.14309e-05 0)
(0.000879604 3.21874e-05 0)
(0.000879615 3.29273e-05 0)
(0.000879638 3.36507e-05 0)
(0.000879674 3.43575e-05 0)
(0.000879724 3.50474e-05 0)
(0.000879786 3.57204e-05 0)
(0.000879863 3.63757e-05 0)
(0.000879956 3.7013e-05 0)
(0.000880053 3.76314e-05 0)
(0.000880169 3.82296e-05 0)
(0.000880284 3.88061e-05 0)
(0.000880409 3.93589e-05 0)
(0.000880533 3.98861e-05 0)
(0.000880667 4.03852e-05 0)
(0.0008808 4.08538e-05 0)
(0.000880942 4.12892e-05 0)
(0.000881073 4.1689e-05 0)
(0.000881204 4.20508e-05 0)
(0.000881334 4.23725e-05 0)
(0.000881464 4.26521e-05 0)
(0.000881584 4.28882e-05 0)
(0.000881703 4.30809e-05 0)
(0.000881804 4.32291e-05 0)
(0.000881914 4.33295e-05 0)
(0.000882005 4.33923e-05 0)
(0.000889378 -3.43046e-07 0)
(0.000889351 -1.17858e-06 0)
(0.000889317 -1.86689e-06 0)
(0.000889255 -2.56842e-06 0)
(0.000889185 -3.18703e-06 0)
(0.00088906 -3.77934e-06 0)
(0.000888936 -4.28195e-06 0)
(0.000888795 -4.71742e-06 0)
(0.000888637 -5.09752e-06 0)
(0.000888452 -5.38592e-06 0)
(0.000888258 -5.61845e-06 0)
(0.000888048 -5.77739e-06 0)
(0.000887829 -5.82926e-06 0)
(0.000887574 -5.81473e-06 0)
(0.00088732 -5.71842e-06 0)
(0.000887056 -5.53698e-06 0)
(0.000886777 -5.26911e-06 0)
(0.000886487 -4.92276e-06 0)
(0.000886172 -4.49985e-06 0)
(0.000885842 -3.99035e-06 0)
(0.000885527 -3.43282e-06 0)
(0.000885204 -2.77562e-06 0)
(0.000884856 -2.04148e-06 0)
(0.000884517 -1.28355e-06 0)
(0.000884175 -4.02511e-07 0)
(0.000883847 4.67748e-07 0)
(0.000883461 1.44494e-06 0)
(0.000883125 2.45276e-06 0)
(0.000882797 3.45183e-06 0)
(0.000882478 4.56995e-06 0)
(0.000882121 5.68983e-06 0)
(0.000881764 6.84823e-06 0)
(0.000881453 8.03827e-06 0)
(0.000881131 9.24816e-06 0)
(0.000880811 1.04723e-05 0)
(0.00088049 1.17279e-05 0)
(0.000880187 1.29899e-05 0)
(0.000879902 1.42621e-05 0)
(0.000879629 1.55315e-05 0)
(0.000879353 1.68117e-05 0)
(0.000879084 1.80804e-05 0)
(0.000878832 1.93495e-05 0)
(0.000878583 2.06103e-05 0)
(0.000878347 2.18599e-05 0)
(0.000878123 2.30935e-05 0)
(0.000877907 2.43108e-05 0)
(0.000877698 2.55109e-05 0)
(0.000877493 2.66909e-05 0)
(0.000877295 2.78506e-05 0)
(0.000877106 2.89868e-05 0)
(0.000876922 3.00991e-05 0)
(0.000876743 3.11854e-05 0)
(0.000876566 3.22454e-05 0)
(0.000876395 3.32773e-05 0)
(0.000876227 3.42808e-05 0)
(0.00087606 3.52556e-05 0)
(0.000875894 3.62011e-05 0)
(0.000875726 3.71168e-05 0)
(0.000875559 3.8002e-05 0)
(0.00087539 3.88565e-05 0)
(0.000875217 3.96803e-05 0)
(0.000875042 4.04728e-05 0)
(0.000874861 4.12339e-05 0)
(0.000874674 4.19635e-05 0)
(0.000874481 4.26614e-05 0)
(0.00087428 4.33275e-05 0)
(0.000874071 4.39618e-05 0)
(0.000873854 4.45647e-05 0)
(0.000873631 4.51364e-05 0)
(0.000873403 4.5678e-05 0)
(0.000873172 4.61902e-05 0)
(0.00087294 4.66744e-05 0)
(0.000872709 4.71323e-05 0)
(0.000872481 4.7566e-05 0)
(0.000872256 4.79776e-05 0)
(0.00087204 4.837e-05 0)
(0.000871831 4.87457e-05 0)
(0.000871633 4.91081e-05 0)
(0.000871448 4.94603e-05 0)
(0.000871277 4.98054e-05 0)
(0.000871123 5.01466e-05 0)
(0.000870985 5.04875e-05 0)
(0.000870866 5.08316e-05 0)
(0.000870766 5.11739e-05 0)
(0.000888632 -4.20809e-07 0)
(0.000888594 -1.46684e-06 0)
(0.00088855 -2.3579e-06 0)
(0.000888452 -3.25302e-06 0)
(0.000888337 -4.02827e-06 0)
(0.000888187 -4.76983e-06 0)
(0.000888003 -5.43775e-06 0)
(0.000887809 -6.01391e-06 0)
(0.000887579 -6.50599e-06 0)
(0.000887334 -6.92205e-06 0)
(0.000887078 -7.24087e-06 0)
(0.00088676 -7.4733e-06 0)
(0.000886447 -7.59705e-06 0)
(0.000886112 -7.63532e-06 0)
(0.000885752 -7.58238e-06 0)
(0.000885366 -7.41877e-06 0)
(0.000884982 -7.15705e-06 0)
(0.000884553 -6.78488e-06 0)
(0.000884115 -6.33062e-06 0)
(0.000883688 -5.78272e-06 0)
(0.000883244 -5.1555e-06 0)
(0.000882772 -4.42268e-06 0)
(0.000882284 -3.61642e-06 0)
(0.000881806 -2.73547e-06 0)
(0.000881338 -1.76221e-06 0)
(0.00088084 -7.18201e-07 0)
(0.000880385 3.62682e-07 0)
(0.00087984 1.53896e-06 0)
(0.000879381 2.78131e-06 0)
(0.000878915 4.00264e-06 0)
(0.000878451 5.29094e-06 0)
(0.000877991 6.64315e-06 0)
(0.000877536 8.02685e-06 0)
(0.000877099 9.44845e-06 0)
(0.000876649 1.09013e-05 0)
(0.000876224 1.23622e-05 0)
(0.000875825 1.38403e-05 0)
(0.000875451 1.53287e-05 0)
(0.000875064 1.68233e-05 0)
(0.000874706 1.83247e-05 0)
(0.00087436 1.98185e-05 0)
(0.000874026 2.13072e-05 0)
(0.000873707 2.27903e-05 0)
(0.000873414 2.42594e-05 0)
(0.000873131 2.57156e-05 0)
(0.000872862 2.71531e-05 0)
(0.00087261 2.85706e-05 0)
(0.000872374 2.99651e-05 0)
(0.000872152 3.13344e-05 0)
(0.000871945 3.26775e-05 0)
(0.000871752 3.39925e-05 0)
(0.000871572 3.52782e-05 0)
(0.000871406 3.65329e-05 0)
(0.000871253 3.77564e-05 0)
(0.000871112 3.89477e-05 0)
(0.000870982 4.01063e-05 0)
(0.000870863 4.12316e-05 0)
(0.000870757 4.23235e-05 0)
(0.00087066 4.33819e-05 0)
(0.000870572 4.44068e-05 0)
(0.000870493 4.53979e-05 0)
(0.000870423 4.63555e-05 0)
(0.00087036 4.728e-05 0)
(0.000870307 4.81716e-05 0)
(0.000870264 4.90308e-05 0)
(0.00087023 4.98586e-05 0)
(0.000870205 5.06555e-05 0)
(0.000870189 5.14227e-05 0)
(0.000870181 5.21607e-05 0)
(0.00087018 5.28702e-05 0)
(0.000870185 5.3552e-05 0)
(0.000870196 5.42066e-05 0)
(0.000870211 5.48342e-05 0)
(0.000870232 5.54355e-05 0)
(0.000870258 5.60106e-05 0)
(0.000870291 5.65595e-05 0)
(0.000870329 5.70822e-05 0)
(0.000870373 5.75787e-05 0)
(0.000870422 5.80487e-05 0)
(0.000870475 5.84914e-05 0)
(0.000870531 5.89068e-05 0)
(0.00087059 5.92944e-05 0)
(0.000870649 5.96532e-05 0)
(0.000870707 5.99843e-05 0)
(0.000890455 -5.19104e-07 0)
(0.000890417 -1.7915e-06 0)
(0.000890356 -2.88231e-06 0)
(0.000890215 -3.97993e-06 0)
(0.000890055 -4.94981e-06 0)
(0.000889879 -5.86351e-06 0)
(0.000889639 -6.69155e-06 0)
(0.000889364 -7.44529e-06 0)
(0.000889083 -8.0826e-06 0)
(0.000888757 -8.64663e-06 0)
(0.000888395 -9.07603e-06 0)
(0.000888 -9.40099e-06 0)
(0.000887576 -9.63108e-06 0)
(0.000887147 -9.74233e-06 0)
(0.000886654 -9.7441e-06 0)
(0.000886156 -9.63257e-06 0)
(0.000885623 -9.40062e-06 0)
(0.00088508 -9.0497e-06 0)
(0.00088451 -8.61044e-06 0)
(0.000883925 -8.05731e-06 0)
(0.000883323 -7.39336e-06 0)
(0.000882711 -6.60973e-06 0)
(0.000882095 -5.75514e-06 0)
(0.000881451 -4.7932e-06 0)
(0.000880817 -3.75401e-06 0)
(0.000880165 -2.6012e-06 0)
(0.000879526 -1.37362e-06 0)
(0.000878896 -1.04578e-07 0)
(0.000878263 1.29318e-06 0)
(0.00087759 2.67326e-06 0)
(0.000877004 4.12743e-06 0)
(0.000876374 5.61992e-06 0)
(0.000875783 7.16692e-06 0)
(0.000875175 8.78148e-06 0)
(0.000874631 1.04015e-05 0)
(0.000874082 1.20506e-05 0)
(0.000873557 1.37154e-05 0)
(0.000873048 1.54056e-05 0)
(0.000872563 1.71059e-05 0)
(0.000872093 1.88058e-05 0)
(0.000871657 2.0509e-05 0)
(0.000871225 2.22072e-05 0)
(0.00087082 2.38945e-05 0)
(0.000870438 2.55712e-05 0)
(0.000870082 2.7233e-05 0)
(0.000869749 2.88767e-05 0)
(0.000869438 3.04973e-05 0)
(0.000869146 3.20943e-05 0)
(0.000868873 3.3664e-05 0)
(0.000868621 3.52038e-05 0)
(0.000868389 3.67124e-05 0)
(0.000868175 3.81879e-05 0)
(0.000867979 3.96295e-05 0)
(0.000867801 4.10353e-05 0)
(0.000867639 4.24049e-05 0)
(0.000867492 4.37369e-05 0)
(0.000867358 4.5031e-05 0)
(0.000867239 4.62869e-05 0)
(0.000867132 4.75042e-05 0)
(0.000867039 4.8683e-05 0)
(0.000866957 4.98233e-05 0)
(0.000866885 5.09253e-05 0)
(0.000866823 5.19892e-05 0)
(0.000866769 5.30154e-05 0)
(0.000866719 5.40045e-05 0)
(0.000866674 5.49569e-05 0)
(0.00086663 5.58729e-05 0)
(0.000866588 5.67532e-05 0)
(0.00086655 5.75979e-05 0)
(0.000866516 5.84077e-05 0)
(0.000866485 5.91836e-05 0)
(0.00086646 5.99264e-05 0)
(0.00086644 6.06372e-05 0)
(0.000866424 6.13167e-05 0)
(0.000866413 6.19661e-05 0)
(0.000866406 6.25865e-05 0)
(0.000866403 6.31789e-05 0)
(0.000866405 6.37448e-05 0)
(0.000866413 6.42855e-05 0)
(0.000866425 6.48022e-05 0)
(0.000866442 6.52963e-05 0)
(0.000866467 6.57697e-05 0)
(0.000866495 6.62238e-05 0)
(0.000866531 6.66569e-05 0)
(0.00089105 -6.20792e-07 0)
(0.000891006 -2.11709e-06 0)
(0.000890923 -3.36865e-06 0)
(0.000890757 -4.65975e-06 0)
(0.000890553 -5.81977e-06 0)
(0.000890312 -6.91227e-06 0)
(0.000890027 -7.88777e-06 0)
(0.000889692 -8.80487e-06 0)
(0.000889337 -9.58734e-06 0)
(0.000888923 -1.02647e-05 0)
(0.000888456 -1.08197e-05 0)
(0.00088797 -1.12628e-05 0)
(0.000887449 -1.15979e-05 0)
(0.000886886 -1.17874e-05 0)
(0.000886278 -1.1847e-05 0)
(0.000885647 -1.17831e-05 0)
(0.000884972 -1.16073e-05 0)
(0.000884278 -1.12968e-05 0)
(0.000883579 -1.08682e-05 0)
(0.000882836 -1.03144e-05 0)
(0.000882051 -9.64138e-06 0)
(0.000881287 -8.84064e-06 0)
(0.000880499 -7.92788e-06 0)
(0.0008797 -6.90841e-06 0)
(0.000878875 -5.79923e-06 0)
(0.000878057 -4.5579e-06 0)
(0.000877219 -3.25814e-06 0)
(0.000876423 -1.83855e-06 0)
(0.000875617 -3.76862e-07 0)
(0.00087478 1.21611e-06 0)
(0.000874004 2.80727e-06 0)
(0.000873228 4.41675e-06 0)
(0.000872456 6.15882e-06 0)
(0.000871717 7.88689e-06 0)
(0.000871014 9.69198e-06 0)
(0.000870331 1.15142e-05 0)
(0.000869652 1.33673e-05 0)
(0.000869001 1.52344e-05 0)
(0.000868392 1.71252e-05 0)
(0.000867805 1.90115e-05 0)
(0.000867244 2.09123e-05 0)
(0.000866713 2.28037e-05 0)
(0.00086621 2.46889e-05 0)
(0.000865734 2.656e-05 0)
(0.000865287 2.84173e-05 0)
(0.000864872 3.02568e-05 0)
(0.000864483 3.20736e-05 0)
(0.000864124 3.38646e-05 0)
(0.000863795 3.56247e-05 0)
(0.000863493 3.73525e-05 0)
(0.000863215 3.90457e-05 0)
(0.000862961 4.0703e-05 0)
(0.000862732 4.23217e-05 0)
(0.000862527 4.39013e-05 0)
(0.000862344 4.54405e-05 0)
(0.000862181 4.69382e-05 0)
(0.000862037 4.8394e-05 0)
(0.000861912 4.98072e-05 0)
(0.000861805 5.1178e-05 0)
(0.000861713 5.25061e-05 0)
(0.000861635 5.37916e-05 0)
(0.000861571 5.5035e-05 0)
(0.000861518 5.62361e-05 0)
(0.000861478 5.73957e-05 0)
(0.00086145 5.85144e-05 0)
(0.000861435 5.95928e-05 0)
(0.000861432 6.06318e-05 0)
(0.000861441 6.16324e-05 0)
(0.000861459 6.25955e-05 0)
(0.000861485 6.3522e-05 0)
(0.000861516 6.44127e-05 0)
(0.000861552 6.52683e-05 0)
(0.000861593 6.60895e-05 0)
(0.000861639 6.68768e-05 0)
(0.00086169 6.76317e-05 0)
(0.000861746 6.83544e-05 0)
(0.000861807 6.90462e-05 0)
(0.000861875 6.97077e-05 0)
(0.000861948 7.03398e-05 0)
(0.000862027 7.09434e-05 0)
(0.000862111 7.15195e-05 0)
(0.000862198 7.20693e-05 0)
(0.00086229 7.25929e-05 0)
(0.000862382 7.30898e-05 0)
(0.0008921 -7.04783e-07 0)
(0.00089203 -2.38964e-06 0)
(0.000891922 -3.78948e-06 0)
(0.000891736 -5.22815e-06 0)
(0.000891497 -6.53095e-06 0)
(0.000891203 -7.79233e-06 0)
(0.000890873 -8.8993e-06 0)
(0.000890474 -9.93391e-06 0)
(0.000890011 -1.08411e-05 0)
(0.000889516 -1.16162e-05 0)
(0.000888966 -1.22814e-05 0)
(0.000888381 -1.28276e-05 0)
(0.000887737 -1.3233e-05 0)
(0.000887041 -1.34878e-05 0)
(0.0008863 -1.3612e-05 0)
(0.000885542 -1.36057e-05 0)
(0.000884723 -1.34648e-05 0)
(0.000883882 -1.31881e-05 0)
(0.000883014 -1.27651e-05 0)
(0.000882105 -1.21931e-05 0)
(0.000881161 -1.15033e-05 0)
(0.000880201 -1.06937e-05 0)
(0.000879231 -9.74052e-06 0)
(0.000878261 -8.65752e-06 0)
(0.000877243 -7.47255e-06 0)
(0.000876254 -6.16958e-06 0)
(0.000875225 -4.76644e-06 0)
(0.000874237 -3.26214e-06 0)
(0.000873197 -1.65003e-06 0)
(0.000872239 4.53774e-08 0)
(0.000871227 1.80333e-06 0)
(0.000870325 3.57382e-06 0)
(0.000869351 5.41442e-06 0)
(0.000868463 7.32055e-06 0)
(0.000867562 9.27153e-06 0)
(0.000866725 1.12756e-05 0)
(0.000865904 1.33139e-05 0)
(0.00086511 1.53625e-05 0)
(0.000864359 1.74339e-05 0)
(0.000863642 1.95179e-05 0)
(0.000862955 2.16018e-05 0)
(0.00086231 2.36895e-05 0)
(0.0008617 2.57708e-05 0)
(0.00086112 2.78436e-05 0)
(0.000860578 2.98976e-05 0)
(0.000860074 3.19307e-05 0)
(0.00085961 3.3939e-05 0)
(0.000859185 3.592e-05 0)
(0.000858796 3.78698e-05 0)
(0.000858441 3.97863e-05 0)
(0.000858119 4.16662e-05 0)
(0.000857828 4.35069e-05 0)
(0.000857571 4.5306e-05 0)
(0.000857341 4.70622e-05 0)
(0.000857142 4.87741e-05 0)
(0.000856969 5.04409e-05 0)
(0.000856821 5.20611e-05 0)
(0.000856698 5.36348e-05 0)
(0.000856598 5.51613e-05 0)
(0.000856519 5.66409e-05 0)
(0.000856461 5.80735e-05 0)
(0.000856423 5.94594e-05 0)
(0.000856401 6.07994e-05 0)
(0.000856395 6.2094e-05 0)
(0.0008564 6.33437e-05 0)
(0.000856414 6.45489e-05 0)
(0.000856437 6.57101e-05 0)
(0.000856466 6.6828e-05 0)
(0.000856502 6.79035e-05 0)
(0.000856547 6.89369e-05 0)
(0.000856601 6.99295e-05 0)
(0.000856665 7.08821e-05 0)
(0.00085674 7.17959e-05 0)
(0.000856821 7.26721e-05 0)
(0.000856912 7.35116e-05 0)
(0.000857008 7.43154e-05 0)
(0.000857111 7.50847e-05 0)
(0.000857218 7.58206e-05 0)
(0.000857332 7.65241e-05 0)
(0.000857448 7.71961e-05 0)
(0.000857569 7.7838e-05 0)
(0.000857692 7.84512e-05 0)
(0.000857819 7.90362e-05 0)
(0.000857947 7.95924e-05 0)
(0.000893271 -7.64728e-07 0)
(0.000893182 -2.58095e-06 0)
(0.000893039 -4.11219e-06 0)
(0.000892834 -5.68587e-06 0)
(0.000892573 -7.08898e-06 0)
(0.000892208 -8.47578e-06 0)
(0.000891807 -9.69902e-06 0)
(0.000891353 -1.08053e-05 0)
(0.000890809 -1.18151e-05 0)
(0.000890222 -1.26969e-05 0)
(0.000889591 -1.34471e-05 0)
(0.000888889 -1.40558e-05 0)
(0.00088811 -1.4513e-05 0)
(0.000887297 -1.48255e-05 0)
(0.000886448 -1.50183e-05 0)
(0.000885529 -1.50551e-05 0)
(0.000884568 -1.49202e-05 0)
(0.000883566 -1.46686e-05 0)
(0.000882513 -1.42466e-05 0)
(0.000881434 -1.36751e-05 0)
(0.00088032 -1.29685e-05 0)
(0.000879188 -1.21282e-05 0)
(0.000878008 -1.11435e-05 0)
(0.000876839 -1.00056e-05 0)
(0.000875638 -8.75007e-06 0)
(0.000874442 -7.38583e-06 0)
(0.000873211 -5.87554e-06 0)
(0.000872006 -4.27624e-06 0)
(0.000870795 -2.56697e-06 0)
(0.000869625 -7.8617e-07 0)
(0.000868425 1.12081e-06 0)
(0.000867297 3.05071e-06 0)
(0.000866168 5.01217e-06 0)
(0.000865098 7.11772e-06 0)
(0.000864011 9.19985e-06 0)
(0.000862983 1.138e-05 0)
(0.000862003 1.3566e-05 0)
(0.000861059 1.57986e-05 0)
(0.000860147 1.805e-05 0)
(0.000859283 2.03147e-05 0)
(0.000858468 2.25961e-05 0)
(0.00085768 2.48681e-05 0)
(0.000856947 2.71478e-05 0)
(0.000856257 2.94065e-05 0)
(0.000855621 3.16544e-05 0)
(0.000855024 3.38774e-05 0)
(0.000854471 3.60793e-05 0)
(0.000853963 3.82504e-05 0)
(0.000853499 4.0391e-05 0)
(0.000853079 4.24945e-05 0)
(0.000852701 4.4559e-05 0)
(0.000852363 4.65814e-05 0)
(0.000852065 4.85583e-05 0)
(0.000851803 5.049e-05 0)
(0.000851577 5.2373e-05 0)
(0.000851383 5.42069e-05 0)
(0.000851221 5.5991e-05 0)
(0.000851089 5.77236e-05 0)
(0.000850983 5.94052e-05 0)
(0.000850901 6.10352e-05 0)
(0.000850843 6.26135e-05 0)
(0.000850804 6.41407e-05 0)
(0.000850784 6.56165e-05 0)
(0.000850782 6.70416e-05 0)
(0.000850797 6.84161e-05 0)
(0.000850832 6.97409e-05 0)
(0.000850886 7.10172e-05 0)
(0.000850955 7.22458e-05 0)
(0.000851039 7.34279e-05 0)
(0.000851133 7.45644e-05 0)
(0.000851236 7.56567e-05 0)
(0.000851346 7.67056e-05 0)
(0.00085146 7.7712e-05 0)
(0.00085158 7.8677e-05 0)
(0.000851706 7.96015e-05 0)
(0.000851838 8.04869e-05 0)
(0.000851975 8.13341e-05 0)
(0.00085212 8.21446e-05 0)
(0.000852269 8.29195e-05 0)
(0.000852424 8.36599e-05 0)
(0.000852582 8.43672e-05 0)
(0.000852746 8.5043e-05 0)
(0.000852911 8.56884e-05 0)
(0.000853078 8.63013e-05 0)
(0.000894371 -8.04628e-07 0)
(0.000894252 -2.72668e-06 0)
(0.000894109 -4.36442e-06 0)
(0.000893859 -6.06174e-06 0)
(0.00089356 -7.55348e-06 0)
(0.000893169 -9.00556e-06 0)
(0.000892676 -1.03245e-05 0)
(0.000892158 -1.15322e-05 0)
(0.000891559 -1.26158e-05 0)
(0.00089088 -1.35711e-05 0)
(0.00089014 -1.43987e-05 0)
(0.000889321 -1.50525e-05 0)
(0.000888434 -1.55702e-05 0)
(0.000887502 -1.59647e-05 0)
(0.000886517 -1.61897e-05 0)
(0.000885437 -1.62531e-05 0)
(0.000884333 -1.61529e-05 0)
(0.000883168 -1.59001e-05 0)
(0.000881935 -1.54978e-05 0)
(0.000880677 -1.49452e-05 0)
(0.000879395 -1.42262e-05 0)
(0.000878057 -1.33534e-05 0)
(0.000876672 -1.23298e-05 0)
(0.000875295 -1.1161e-05 0)
(0.000873907 -9.84831e-06 0)
(0.000872486 -8.41404e-06 0)
(0.000871062 -6.84181e-06 0)
(0.00086963 -5.16693e-06 0)
(0.000868225 -3.35525e-06 0)
(0.000866831 -1.48871e-06 0)
(0.000865434 5.74925e-07 0)
(0.000864085 2.60574e-06 0)
(0.00086277 4.70084e-06 0)
(0.000861488 6.94495e-06 0)
(0.000860237 9.17391e-06 0)
(0.00085902 1.15051e-05 0)
(0.000857858 1.3848e-05 0)
(0.00085673 1.62493e-05 0)
(0.000855658 1.86646e-05 0)
(0.000854638 2.11052e-05 0)
(0.000853668 2.35524e-05 0)
(0.000852746 2.60141e-05 0)
(0.000851882 2.84656e-05 0)
(0.000851076 3.09142e-05 0)
(0.00085032 3.33469e-05 0)
(0.000849613 3.57607e-05 0)
(0.000848965 3.81479e-05 0)
(0.000848369 4.05054e-05 0)
(0.000847829 4.28307e-05 0)
(0.000847339 4.51181e-05 0)
(0.0008469 4.73652e-05 0)
(0.000846512 4.95676e-05 0)
(0.00084617 5.17238e-05 0)
(0.000845872 5.38312e-05 0)
(0.000845617 5.58878e-05 0)
(0.000845401 5.78926e-05 0)
(0.000845224 5.98435e-05 0)
(0.000845084 6.17404e-05 0)
(0.000844976 6.35823e-05 0)
(0.000844901 6.53688e-05 0)
(0.000844855 6.70998e-05 0)
(0.000844838 6.87749e-05 0)
(0.000844847 7.03951e-05 0)
(0.00084488 7.19604e-05 0)
(0.000844933 7.34718e-05 0)
(0.000845 7.49299e-05 0)
(0.00084508 7.63352e-05 0)
(0.000845171 7.76883e-05 0)
(0.000845272 7.89901e-05 0)
(0.000845387 8.02415e-05 0)
(0.000845515 8.14433e-05 0)
(0.000845657 8.25971e-05 0)
(0.000845812 8.37042e-05 0)
(0.000845978 8.47659e-05 0)
(0.000846154 8.57833e-05 0)
(0.000846338 8.67578e-05 0)
(0.00084653 8.76915e-05 0)
(0.000846726 8.85839e-05 0)
(0.000846928 8.94378e-05 0)
(0.000847134 9.02538e-05 0)
(0.000847343 9.10329e-05 0)
(0.000847554 9.17778e-05 0)
(0.000847767 9.24884e-05 0)
(0.000847978 9.31646e-05 0)
(0.000895518 -8.40804e-07 0)
(0.000895409 -2.86791e-06 0)
(0.000895236 -4.58694e-06 0)
(0.000894958 -6.36951e-06 0)
(0.000894605 -7.95838e-06 0)
(0.000894166 -9.47594e-06 0)
(0.000893634 -1.08691e-05 0)
(0.000893043 -1.2178e-05 0)
(0.000892363 -1.33269e-05 0)
(0.000891609 -1.43453e-05 0)
(0.00089076 -1.523e-05 0)
(0.000889833 -1.59605e-05 0)
(0.000888851 -1.65431e-05 0)
(0.00088779 -1.69884e-05 0)
(0.000886644 -1.72542e-05 0)
(0.000885436 -1.73597e-05 0)
(0.000884161 -1.73222e-05 0)
(0.000882844 -1.70881e-05 0)
(0.000881457 -1.67005e-05 0)
(0.000880002 -1.6154e-05 0)
(0.000878517 -1.54342e-05 0)
(0.000876988 -1.45543e-05 0)
(0.000875406 -1.35194e-05 0)
(0.000873819 -1.23387e-05 0)
(0.000872214 -1.09895e-05 0)
(0.000870585 -9.5062e-06 0)
(0.000868953 -7.88112e-06 0)
(0.000867301 -6.12922e-06 0)
(0.000865668 -4.24978e-06 0)
(0.000864036 -2.283e-06 0)
(0.000862448 -1.71153e-07 0)
(0.000860846 1.99979e-06 0)
(0.000859368 4.22905e-06 0)
(0.000857835 6.56026e-06 0)
(0.000856412 8.93357e-06 0)
(0.000854992 1.13946e-05 0)
(0.000853646 1.38778e-05 0)
(0.000852332 1.64268e-05 0)
(0.000851088 1.89919e-05 0)
(0.000849899 2.15925e-05 0)
(0.000848761 2.42125e-05 0)
(0.000847696 2.68334e-05 0)
(0.000846683 2.94578e-05 0)
(0.000845742 3.20766e-05 0)
(0.000844864 3.46852e-05 0)
(0.000844051 3.72744e-05 0)
(0.000843299 3.98436e-05 0)
(0.000842606 4.23816e-05 0)
(0.000841975 4.48871e-05 0)
(0.000841406 4.73536e-05 0)
(0.000840901 4.97795e-05 0)
(0.000840449 5.21618e-05 0)
(0.000840054 5.44965e-05 0)
(0.00083971 5.67829e-05 0)
(0.000839419 5.90163e-05 0)
(0.000839174 6.11963e-05 0)
(0.000838976 6.33208e-05 0)
(0.000838818 6.53884e-05 0)
(0.000838701 6.73992e-05 0)
(0.00083862 6.93517e-05 0)
(0.000838574 7.12459e-05 0)
(0.000838556 7.30816e-05 0)
(0.000838566 7.48586e-05 0)
(0.000838602 7.65769e-05 0)
(0.000838665 7.82369e-05 0)
(0.000838754 7.98389e-05 0)
(0.000838869 8.13836e-05 0)
(0.000839007 8.28723e-05 0)
(0.000839164 8.43063e-05 0)
(0.000839338 8.56866e-05 0)
(0.000839524 8.70142e-05 0)
(0.000839718 8.82901e-05 0)
(0.00083992 8.95162e-05 0)
(0.000840129 9.0692e-05 0)
(0.000840344 9.18204e-05 0)
(0.000840567 9.29012e-05 0)
(0.000840796 9.39362e-05 0)
(0.000841033 9.49272e-05 0)
(0.000841275 9.58751e-05 0)
(0.000841521 9.67817e-05 0)
(0.000841772 9.76476e-05 0)
(0.000842025 9.84758e-05 0)
(0.000842279 9.92661e-05 0)
(0.000842534 0.000100019 0)
(0.000896674 -8.81069e-07 0)
(0.000896556 -3.00433e-06 0)
(0.000896364 -4.7875e-06 0)
(0.000896067 -6.6329e-06 0)
(0.000895658 -8.30245e-06 0)
(0.000895182 -9.91279e-06 0)
(0.000894602 -1.13865e-05 0)
(0.000893946 -1.27543e-05 0)
(0.000893181 -1.39747e-05 0)
(0.000892346 -1.50712e-05 0)
(0.000891412 -1.60001e-05 0)
(0.000890383 -1.68187e-05 0)
(0.000889281 -1.74794e-05 0)
(0.000888101 -1.79574e-05 0)
(0.000886817 -1.82875e-05 0)
(0.000885472 -1.84481e-05 0)
(0.00088405 -1.84465e-05 0)
(0.000882542 -1.82697e-05 0)
(0.000880984 -1.79062e-05 0)
(0.00087936 -1.73759e-05 0)
(0.000877682 -1.6685e-05 0)
(0.000875956 -1.5808e-05 0)
(0.000874179 -1.47786e-05 0)
(0.000872372 -1.35903e-05 0)
(0.000870547 -1.22354e-05 0)
(0.000868694 -1.07239e-05 0)
(0.000866828 -9.06023e-06 0)
(0.000864975 -7.2661e-06 0)
(0.000863106 -5.33188e-06 0)
(0.000861251 -3.28704e-06 0)
(0.000859448 -1.12958e-06 0)
(0.000857617 1.17346e-06 0)
(0.000855893 3.49223e-06 0)
(0.000854162 5.89863e-06 0)
(0.000852522 8.40898e-06 0)