/*--------------------------------*- C++ -*----------------------------------*\
  =========                 |
  \\      /  F ield         | OpenFOAM: The Open Source CFD Toolbox
   \\    /   O peration     | Website:  https://openfoam.org
    \\  /    A nd           | Version:  10
     \\/     M anipulation  |
\*---------------------------------------------------------------------------*/
FoamFile
{
    format      ascii;
    class       volVectorField;
    location    "0";
    object      U_d3;
}
// * * * * * * * * * * * * * * * * * * * * * * * * * * * * * * * * * * * * * //

dimensions      [0 1 -1 0 0 0 0];

internalField   nonuniform List<vector> 
84253
(
(0.000950454 -1.28039e-08 0)
(0.000950446 -3.54431e-08 0)
(0.000950452 -5.11799e-08 0)
(0.000950458 -7.01444e-08 0)
(0.000950449 -8.49023e-08 0)
(0.000950448 -1.0523e-07 0)
(0.000950456 -1.23371e-07 0)
(0.000950452 -1.46128e-07 0)
(0.000950451 -1.73201e-07 0)
(0.00095045 -1.86674e-07 0)
(0.00095045 -2.08161e-07 0)
(0.000950445 -2.29735e-07 0)
(0.000950451 -2.45566e-07 0)
(0.000950449 -2.65361e-07 0)
(0.000950445 -2.84812e-07 0)
(0.000950446 -3.03869e-07 0)
(0.000950455 -3.16193e-07 0)
(0.000950448 -3.35807e-07 0)
(0.000950444 -3.54918e-07 0)
(0.000950443 -3.69483e-07 0)
(0.000950445 -3.85894e-07 0)
(0.000950449 -3.97054e-07 0)
(0.000950443 -4.06622e-07 0)
(0.000950444 -4.10451e-07 0)
(0.000950449 -4.15902e-07 0)
(0.000950445 -4.19904e-07 0)
(0.000950443 -4.21557e-07 0)
(0.000950448 -4.19121e-07 0)
(0.000950446 -4.15593e-07 0)
(0.000950448 -4.14564e-07 0)
(0.000950445 -4.10442e-07 0)
(0.000950443 -4.0246e-07 0)
(0.000950444 -3.91983e-07 0)
(0.000950442 -3.7767e-07 0)
(0.000950443 -3.62412e-07 0)
(0.000950444 -3.47856e-07 0)
(0.000950445 -3.308e-07 0)
(0.000950446 -3.12583e-07 0)
(0.000950446 -2.93836e-07 0)
(0.000950445 -2.74331e-07 0)
(0.000950444 -2.52964e-07 0)
(0.000950446 -2.31844e-07 0)
(0.000950447 -2.10277e-07 0)
(0.000950449 -1.87667e-07 0)
(0.000950449 -1.65891e-07 0)
(0.000950448 -1.446e-07 0)
(0.00095045 -1.25382e-07 0)
(0.000950451 -1.07767e-07 0)
(0.000950452 -9.02425e-08 0)
(0.000950452 -7.80542e-08 0)
(0.000950451 -6.64997e-08 0)
(0.000950453 -5.75038e-08 0)
(0.000950454 -5.56456e-08 0)
(0.000950455 -5.29826e-08 0)
(0.000950457 -5.41567e-08 0)
(0.000950459 -6.19476e-08 0)
(0.000950461 -7.37251e-08 0)
(0.000950463 -8.75207e-08 0)
(0.000950465 -1.03091e-07 0)
(0.000950467 -1.24335e-07 0)
(0.000950469 -1.48798e-07 0)
(0.000950472 -1.78721e-07 0)
(0.000950472 -2.08598e-07 0)
(0.000950472 -2.38993e-07 0)
(0.000950473 -2.69989e-07 0)
(0.000950473 -3.03941e-07 0)
(0.000950475 -3.368e-07 0)
(0.000950477 -3.64437e-07 0)
(0.000950481 -3.93216e-07 0)
(0.000950488 -4.19424e-07 0)
(0.000950498 -4.40706e-07 0)
(0.00095051 -4.56853e-07 0)
(0.000950523 -4.67818e-07 0)
(0.000950538 -4.72782e-07 0)
(0.000950553 -4.71191e-07 0)
(0.000950568 -4.63002e-07 0)
(0.000950582 -4.47728e-07 0)
(0.000950596 -4.24837e-07 0)
(0.00095061 -3.94782e-07 0)
(0.000950622 -3.57911e-07 0)
(0.000950633 -3.14374e-07 0)
(0.000950642 -2.64744e-07 0)
(0.000950651 -2.09209e-07 0)
(0.000950658 -1.49177e-07 0)
(0.00096645 -4.81329e-08 0)
(0.000966489 -1.47287e-07 0)
(0.000966489 -2.1108e-07 0)
(0.00096647 -2.79363e-07 0)
(0.00096648 -3.57468e-07 0)
(0.00096648 -4.42509e-07 0)
(0.00096647 -5.18695e-07 0)
(0.000966481 -5.92504e-07 0)
(0.000966472 -6.61753e-07 0)
(0.000966463 -7.52249e-07 0)
(0.000966473 -8.34731e-07 0)
(0.000966464 -9.20604e-07 0)
(0.000966445 -1.00162e-06 0)
(0.000966446 -1.0787e-06 0)
(0.000966447 -1.15967e-06 0)
(0.000966429 -1.24208e-06 0)
(0.00096641 -1.31537e-06 0)
(0.000966421 -1.37626e-06 0)
(0.000966412 -1.44092e-06 0)
(0.000966404 -1.5078e-06 0)
(0.000966386 -1.57356e-06 0)
(0.000966358 -1.61993e-06 0)
(0.000966349 -1.66936e-06 0)
(0.000966332 -1.72171e-06 0)
(0.000966313 -1.75654e-06 0)
(0.000966295 -1.78339e-06 0)
(0.000966267 -1.80748e-06 0)
(0.00096624 -1.82504e-06 0)
(0.000966231 -1.83503e-06 0)
(0.000966203 -1.82751e-06 0)
(0.000966176 -1.81268e-06 0)
(0.000966148 -1.79949e-06 0)
(0.000966112 -1.77402e-06 0)
(0.000966083 -1.74596e-06 0)
(0.000966056 -1.7089e-06 0)
(0.000966018 -1.66252e-06 0)
(0.000965981 -1.60766e-06 0)
(0.000965943 -1.54568e-06 0)
(0.000965905 -1.4767e-06 0)
(0.000965868 -1.40009e-06 0)
(0.000965831 -1.32147e-06 0)
(0.000965784 -1.2321e-06 0)
(0.000965737 -1.13836e-06 0)
(0.0009657 -1.03863e-06 0)
(0.000965653 -9.33145e-07 0)
(0.000965615 -8.21064e-07 0)
(0.000965568 -7.02855e-07 0)
(0.000965521 -5.78586e-07 0)
(0.000965474 -4.47959e-07 0)
(0.000965427 -3.17594e-07 0)
(0.00096539 -1.80002e-07 0)
(0.000965343 -3.60653e-08 0)
(0.000965296 1.08533e-07 0)
(0.000965259 2.56449e-07 0)
(0.000965212 4.13089e-07 0)
(0.000965165 5.70597e-07 0)
(0.000965128 7.30495e-07 0)
(0.000965081 8.97937e-07 0)
(0.000965044 1.06548e-06 0)
(0.000964997 1.23004e-06 0)
(0.000964949 1.39539e-06 0)
(0.000964912 1.56959e-06 0)
(0.000964864 1.73837e-06 0)
(0.000964827 1.90451e-06 0)
(0.000964789 2.06761e-06 0)
(0.000964741 2.22844e-06 0)
(0.000964693 2.38429e-06 0)
(0.000964645 2.52678e-06 0)
(0.000964588 2.66927e-06 0)
(0.000964531 2.80435e-06 0)
(0.000964474 2.919e-06 0)
(0.000964407 3.02091e-06 0)
(0.000964341 3.11623e-06 0)
(0.000964275 3.19943e-06 0)
(0.000964208 3.26409e-06 0)
(0.000964131 3.30996e-06 0)
(0.000964065 3.3385e-06 0)
(0.000963998 3.35057e-06 0)
(0.000963941 3.34686e-06 0)
(0.000963884 3.3277e-06 0)
(0.000963836 3.29348e-06 0)
(0.000963799 3.24431e-06 0)
(0.000963761 3.17963e-06 0)
(0.000963732 3.1051e-06 0)
(0.000966069 -6.83688e-08 0)
(0.000966136 -2.40852e-07 0)
(0.000966128 -3.74197e-07 0)
(0.000966138 -5.34539e-07 0)
(0.000966139 -6.78951e-07 0)
(0.00096613 -8.14294e-07 0)
(0.000966122 -9.68174e-07 0)
(0.000966104 -1.12243e-06 0)
(0.000966115 -1.26482e-06 0)
(0.000966117 -1.43619e-06 0)
(0.000966099 -1.58561e-06 0)
(0.000966092 -1.72266e-06 0)
(0.000966075 -1.89237e-06 0)
(0.000966058 -2.0497e-06 0)
(0.00096605 -2.19844e-06 0)
(0.000966033 -2.34157e-06 0)
(0.000966008 -2.50807e-06 0)
(0.000965971 -2.6548e-06 0)
(0.000965955 -2.78773e-06 0)
(0.000965939 -2.91853e-06 0)
(0.000965894 -3.03134e-06 0)
(0.000965849 -3.15389e-06 0)
(0.000965833 -3.26535e-06 0)
(0.000965788 -3.37348e-06 0)
(0.000965724 -3.47088e-06 0)
(0.000965669 -3.55303e-06 0)
(0.000965624 -3.62095e-06 0)
(0.000965569 -3.6892e-06 0)
(0.000965476 -3.74316e-06 0)
(0.000965393 -3.78124e-06 0)
(0.000965339 -3.80729e-06 0)
(0.000965264 -3.82081e-06 0)
(0.00096518 -3.83017e-06 0)
(0.000965106 -3.82037e-06 0)
(0.000965003 -3.79699e-06 0)
(0.000964899 -3.76184e-06 0)
(0.000964806 -3.71767e-06 0)
(0.000964702 -3.66252e-06 0)
(0.000964589 -3.59689e-06 0)
(0.000964485 -3.52137e-06 0)
(0.000964361 -3.43566e-06 0)
(0.000964238 -3.34202e-06 0)
(0.000964115 -3.2401e-06 0)
(0.000963981 -3.13112e-06 0)
(0.000963838 -3.01367e-06 0)
(0.000963695 -2.88807e-06 0)
(0.000963542 -2.75826e-06 0)
(0.000963389 -2.62397e-06 0)
(0.000963226 -2.48638e-06 0)
(0.000963063 -2.3467e-06 0)
(0.00096289 -2.2036e-06 0)
(0.000962708 -2.05877e-06 0)
(0.000962526 -1.91291e-06 0)
(0.000962334 -1.76758e-06 0)
(0.000962132 -1.62248e-06 0)
(0.00096193 -1.47908e-06 0)
(0.000961719 -1.33833e-06 0)
(0.000961497 -1.20096e-06 0)
(0.000961277 -1.07078e-06 0)
(0.000961036 -9.43246e-07 0)
(0.000960796 -8.23008e-07 0)
(0.000960556 -7.05839e-07 0)
(0.000960306 -5.9662e-07 0)
(0.000960047 -4.95083e-07 0)
(0.000959778 -4.02826e-07 0)
(0.000959509 -3.14942e-07 0)
(0.00095924 -2.31841e-07 0)
(0.000958971 -1.60881e-07 0)
(0.000958708 -9.18715e-08 0)
(0.000958447 -2.65933e-08 0)
(0.000958193 3.40756e-08 0)
(0.000957947 9.35637e-08 0)
(0.000957709 1.52472e-07 0)
(0.00095748 2.10553e-07 0)
(0.000957261 2.70941e-07 0)
(0.000957052 3.36749e-07 0)
(0.000956854 4.0678e-07 0)
(0.000956668 4.82881e-07 0)
(0.000956495 5.68033e-07 0)
(0.000956334 6.61888e-07 0)
(0.000956188 7.64713e-07 0)
(0.000956055 8.78185e-07 0)
(0.000955935 1.00306e-06 0)
(0.000955828 1.13489e-06 0)
(0.000963745 -1.02303e-07 0)
(0.000963764 -3.48556e-07 0)
(0.000963775 -5.3723e-07 0)
(0.000963785 -7.52764e-07 0)
(0.000963778 -9.61978e-07 0)
(0.000963789 -1.17881e-06 0)
(0.000963811 -1.38987e-06 0)
(0.000963804 -1.61945e-06 0)
(0.000963817 -1.8547e-06 0)
(0.00096383 -2.065e-06 0)
(0.000963805 -2.28963e-06 0)
(0.000963818 -2.51633e-06 0)
(0.000963842 -2.7454e-06 0)
(0.000963817 -2.97627e-06 0)
(0.000963803 -3.19707e-06 0)
(0.000963817 -3.41992e-06 0)
(0.000963813 -3.63699e-06 0)
(0.00096378 -3.86918e-06 0)
(0.000963757 -4.09662e-06 0)
(0.000963723 -4.29173e-06 0)
(0.000963701 -4.4805e-06 0)
(0.000963668 -4.67857e-06 0)
(0.000963636 -4.85656e-06 0)
(0.000963594 -5.00778e-06 0)
(0.000963542 -5.16291e-06 0)
(0.000963472 -5.31003e-06 0)
(0.000963419 -5.44175e-06 0)
(0.000963358 -5.54955e-06 0)
(0.000963287 -5.63699e-06 0)
(0.000963217 -5.73054e-06 0)
(0.000963126 -5.80587e-06 0)
(0.000963055 -5.85035e-06 0)
(0.000962954 -5.88436e-06 0)
(0.000962844 -5.90368e-06 0)
(0.000962743 -5.90966e-06 0)
(0.000962642 -5.89844e-06 0)
(0.00096253 -5.86758e-06 0)
(0.00096242 -5.82271e-06 0)
(0.000962308 -5.76351e-06 0)
(0.000962186 -5.69288e-06 0)
(0.000962065 -5.60113e-06 0)
(0.000961943 -5.50061e-06 0)
(0.000961811 -5.38891e-06 0)
(0.000961678 -5.26352e-06 0)
(0.000961536 -5.13093e-06 0)
(0.000961403 -4.98996e-06 0)
(0.00096127 -4.84243e-06 0)
(0.000961128 -4.68705e-06 0)
(0.000960994 -4.52512e-06 0)
(0.000960851 -4.35668e-06 0)
(0.000960718 -4.18318e-06 0)
(0.000960574 -4.00524e-06 0)
(0.00096043 -3.82338e-06 0)
(0.000960287 -3.63765e-06 0)
(0.000960153 -3.44921e-06 0)
(0.000960018 -3.25916e-06 0)
(0.000959884 -3.06708e-06 0)
(0.00095975 -2.87354e-06 0)
(0.000959625 -2.67968e-06 0)
(0.0009595 -2.48456e-06 0)
(0.000959374 -2.28959e-06 0)
(0.000959259 -2.09146e-06 0)
(0.000959152 -1.89526e-06 0)
(0.000959046 -1.70199e-06 0)
(0.000958949 -1.50854e-06 0)
(0.000958861 -1.31567e-06 0)
(0.000958781 -1.12344e-06 0)
(0.000958702 -9.32721e-07 0)
(0.000958627 -7.43608e-07 0)
(0.000958553 -5.58178e-07 0)
(0.000958482 -3.7597e-07 0)
(0.000958414 -1.95314e-07 0)
(0.000958348 -1.99706e-08 0)
(0.000958286 1.48786e-07 0)
(0.00095823 3.11776e-07 0)
(0.000958177 4.66805e-07 0)
(0.00095813 6.13984e-07 0)
(0.000958089 7.52536e-07 0)
(0.000958051 8.81098e-07 0)
(0.000958018 9.98286e-07 0)
(0.000957989 1.10407e-06 0)
(0.000957962 1.1985e-06 0)
(0.000957938 1.2805e-06 0)
(0.000957915 1.35256e-06 0)
(0.000965996 -1.16779e-07 0)
(0.000966006 -4.27268e-07 0)
(0.000966017 -6.81627e-07 0)
(0.000966039 -9.58861e-07 0)
(0.000966061 -1.23467e-06 0)
(0.000966064 -1.52882e-06 0)
(0.000966077 -1.80475e-06 0)
(0.000966101 -2.07345e-06 0)
(0.000966105 -2.36761e-06 0)
(0.000966121 -2.63184e-06 0)
(0.000966136 -2.93766e-06 0)
(0.000966143 -3.26341e-06 0)
(0.000966159 -3.54624e-06 0)
(0.000966157 -3.84429e-06 0)
(0.000966155 -4.15396e-06 0)
(0.000966153 -4.45543e-06 0)
(0.000966152 -4.74376e-06 0)
(0.000966151 -5.03444e-06 0)
(0.000966112 -5.31045e-06 0)
(0.000966064 -5.5893e-06 0)
(0.000966045 -5.8756e-06 0)
(0.000966016 -6.13591e-06 0)
(0.000965949 -6.38163e-06 0)
(0.000965892 -6.61115e-06 0)
(0.000965843 -6.82447e-06 0)
(0.000965776 -7.03395e-06 0)
(0.00096568 -7.22661e-06 0)
(0.000965575 -7.39278e-06 0)
(0.000965489 -7.53993e-06 0)
(0.000965402 -7.66277e-06 0)
(0.000965267 -7.77337e-06 0)
(0.000965141 -7.86261e-06 0)
(0.000965034 -7.92332e-06 0)
(0.000964907 -7.97987e-06 0)
(0.000964761 -8.01465e-06 0)
(0.000964595 -8.02028e-06 0)
(0.000964439 -8.00598e-06 0)
(0.000964292 -7.97948e-06 0)
(0.000964134 -7.9316e-06 0)
(0.000963957 -7.86237e-06 0)
(0.000963779 -7.78119e-06 0)
(0.00096361 -7.68067e-06 0)
(0.000963431 -7.56386e-06 0)
(0.000963252 -7.43391e-06 0)
(0.000963072 -7.29346e-06 0)
(0.000962892 -7.14047e-06 0)
(0.000962702 -6.97396e-06 0)
(0.000962511 -6.79608e-06 0)
(0.00096232 -6.60757e-06 0)
(0.000962128 -6.41047e-06 0)
(0.000961936 -6.20612e-06 0)
(0.000961754 -5.99525e-06 0)
(0.000961551 -5.78007e-06 0)
(0.000961358 -5.56053e-06 0)
(0.000961165 -5.3374e-06 0)
(0.000960971 -5.11169e-06 0)
(0.000960777 -4.88377e-06 0)
(0.000960583 -4.65443e-06 0)
(0.000960388 -4.42508e-06 0)
(0.000960184 -4.19651e-06 0)
(0.000959989 -3.96942e-06 0)
(0.000959794 -3.74425e-06 0)
(0.000959589 -3.52192e-06 0)
(0.000959385 -3.30328e-06 0)
(0.00095918 -3.08892e-06 0)
(0.000958975 -2.87911e-06 0)
(0.000958763 -2.6736e-06 0)
(0.000958556 -2.47001e-06 0)
(0.000958352 -2.27503e-06 0)
(0.000958153 -2.08857e-06 0)
(0.000957959 -1.90782e-06 0)
(0.000957771 -1.73324e-06 0)
(0.000957588 -1.56257e-06 0)
(0.000957411 -1.39221e-06 0)
(0.000957241 -1.22814e-06 0)
(0.000957076 -1.07021e-06 0)
(0.000956918 -9.1423e-07 0)
(0.000956767 -7.61029e-07 0)
(0.000956624 -6.10937e-07 0)
(0.000956491 -4.64382e-07 0)
(0.000956366 -3.1852e-07 0)
(0.00095625 -1.73492e-07 0)
(0.000956145 -3.00903e-08 0)
(0.00095605 1.10955e-07 0)
(0.000965751 -1.32129e-07 0)
(0.000965781 -4.92126e-07 0)
(0.000965802 -8.32849e-07 0)
(0.000965824 -1.17632e-06 0)
(0.000965846 -1.48496e-06 0)
(0.000965871 -1.8217e-06 0)
(0.000965886 -2.1675e-06 0)
(0.000965911 -2.50319e-06 0)
(0.000965937 -2.84899e-06 0)
(0.000965955 -3.20936e-06 0)
(0.000966021 -3.56808e-06 0)
(0.00096603 -3.93325e-06 0)
(0.000966031 -4.29285e-06 0)
(0.00096606 -4.67355e-06 0)
(0.000966071 -5.05439e-06 0)
(0.000966063 -5.42804e-06 0)
(0.000966065 -5.79566e-06 0)
(0.00096604 -6.14468e-06 0)
(0.000966014 -6.49292e-06 0)
(0.000966008 -6.85002e-06 0)
(0.000965974 -7.20197e-06 0)
(0.000965921 -7.52963e-06 0)
(0.000965848 -7.85327e-06 0)
(0.000965776 -8.16595e-06 0)
(0.000965704 -8.44865e-06 0)
(0.000965622 -8.70788e-06 0)
(0.000965511 -8.95021e-06 0)
(0.00096539 -9.18663e-06 0)
(0.000965259 -9.40629e-06 0)
(0.000965119 -9.59919e-06 0)
(0.000964978 -9.75759e-06 0)
(0.000964809 -9.89846e-06 0)
(0.000964657 -1.00167e-05 0)
(0.000964486 -1.00941e-05 0)
(0.000964286 -1.01476e-05 0)
(0.000964085 -1.01871e-05 0)
(0.000963893 -1.02075e-05 0)
(0.00096369 -1.02036e-05 0)
(0.000963468 -1.01799e-05 0)
(0.000963245 -1.01286e-05 0)
(0.000963031 -1.0064e-05 0)
(0.000962787 -9.98092e-06 0)
(0.000962552 -9.87195e-06 0)
(0.000962326 -9.7473e-06 0)
(0.000962079 -9.60167e-06 0)
(0.000961843 -9.44064e-06 0)
(0.000961586 -9.26577e-06 0)
(0.000961338 -9.07804e-06 0)
(0.000961089 -8.87845e-06 0)
(0.000960849 -8.66774e-06 0)
(0.000960599 -8.44798e-06 0)
(0.000960349 -8.2192e-06 0)
(0.000960108 -7.98326e-06 0)
(0.000959856 -7.7417e-06 0)
(0.000959614 -7.49494e-06 0)
(0.000959371 -7.24423e-06 0)
(0.000959128 -6.99036e-06 0)
(0.000958891 -6.73411e-06 0)
(0.000958655 -6.47636e-06 0)
(0.000958422 -6.21797e-06 0)
(0.000958193 -5.95984e-06 0)
(0.000957971 -5.7023e-06 0)
(0.000957755 -5.44556e-06 0)
(0.000957547 -5.19008e-06 0)
(0.000957347 -4.93606e-06 0)
(0.000957154 -4.68358e-06 0)
(0.000956967 -4.43306e-06 0)
(0.000956782 -4.1847e-06 0)
(0.0009566 -3.93931e-06 0)
(0.00095642 -3.69727e-06 0)
(0.000956241 -3.45912e-06 0)
(0.000956066 -3.22445e-06 0)
(0.000955896 -2.99062e-06 0)
(0.000955731 -2.76349e-06 0)
(0.000955575 -2.54535e-06 0)
(0.000955426 -2.3331e-06 0)
(0.000955288 -2.12642e-06 0)
(0.000955159 -1.92295e-06 0)
(0.000955039 -1.72281e-06 0)
(0.00095493 -1.53025e-06 0)
(0.000954829 -1.34521e-06 0)
(0.000954737 -1.16485e-06 0)
(0.000954653 -9.90179e-07 0)
(0.000954576 -8.22333e-07 0)
(0.000965795 -1.55654e-07 0)
(0.000965835 -5.69446e-07 0)
(0.000965866 -9.45742e-07 0)
(0.00096587 -1.33431e-06 0)
(0.000965904 -1.69277e-06 0)
(0.000965958 -2.05201e-06 0)
(0.000965994 -2.44694e-06 0)
(0.000966031 -2.85119e-06 0)
(0.000966078 -3.24839e-06 0)
(0.000966117 -3.6944e-06 0)
(0.000966157 -4.08909e-06 0)
(0.000966189 -4.49187e-06 0)
(0.00096623 -4.92781e-06 0)
(0.000966283 -5.36725e-06 0)
(0.000966287 -5.80345e-06 0)
(0.000966303 -6.24377e-06 0)
(0.000966291 -6.66961e-06 0)
(0.000966298 -7.09314e-06 0)
(0.000966296 -7.53757e-06 0)
(0.000966276 -7.96645e-06 0)
(0.000966236 -8.37133e-06 0)
(0.000966197 -8.75629e-06 0)
(0.00096613 -9.15157e-06 0)
(0.000966043 -9.53095e-06 0)
(0.000965947 -9.8882e-06 0)
(0.000965832 -1.02206e-05 0)
(0.000965726 -1.05218e-05 0)
(0.00096561 -1.08129e-05 0)
(0.000965456 -1.10903e-05 0)
(0.000965281 -1.13443e-05 0)
(0.000965089 -1.1558e-05 0)
(0.000964903 -1.17512e-05 0)
(0.000964689 -1.19145e-05 0)
(0.000964455 -1.20345e-05 0)
(0.000964249 -1.21373e-05 0)
(0.000964013 -1.22241e-05 0)
(0.000963768 -1.22837e-05 0)
(0.000963521 -1.23023e-05 0)
(0.000963254 -1.22972e-05 0)
(0.000962985 -1.2272e-05 0)
(0.000962726 -1.22156e-05 0)
(0.000962426 -1.21392e-05 0)
(0.000962136 -1.20412e-05 0)
(0.000961845 -1.19206e-05 0)
(0.000961552 -1.17757e-05 0)
(0.000961269 -1.16114e-05 0)
(0.000960974 -1.14302e-05 0)
(0.000960679 -1.12324e-05 0)
(0.000960383 -1.10197e-05 0)
(0.000960095 -1.0794e-05 0)
(0.000959807 -1.05558e-05 0)
(0.000959518 -1.03061e-05 0)
(0.000959231 -1.00455e-05 0)
(0.00095895 -9.7758e-06 0)
(0.000958672 -9.49821e-06 0)
(0.000958397 -9.2143e-06 0)
(0.000958125 -8.92494e-06 0)
(0.000957859 -8.63107e-06 0)
(0.000957596 -8.33362e-06 0)
(0.000957339 -8.03366e-06 0)
(0.000957087 -7.73213e-06 0)
(0.000956838 -7.42985e-06 0)
(0.000956591 -7.12766e-06 0)
(0.000956347 -6.82662e-06 0)
(0.000956103 -6.52757e-06 0)
(0.000955862 -6.23138e-06 0)
(0.000955626 -5.93876e-06 0)
(0.000955396 -5.65023e-06 0)
(0.000955176 -5.36615e-06 0)
(0.000954967 -5.08672e-06 0)
(0.000954768 -4.8119e-06 0)
(0.00095458 -4.54195e-06 0)
(0.000954401 -4.27692e-06 0)
(0.000954231 -4.01722e-06 0)
(0.000954068 -3.76317e-06 0)
(0.000953914 -3.51408e-06 0)
(0.000953766 -3.27048e-06 0)
(0.000953626 -3.03464e-06 0)
(0.000953495 -2.80565e-06 0)
(0.000953371 -2.58251e-06 0)
(0.000953255 -2.36544e-06 0)
(0.000953147 -2.15309e-06 0)
(0.000953047 -1.94815e-06 0)
(0.000952954 -1.75063e-06 0)
(0.000966297 -1.75261e-07 0)
(0.000966347 -6.31166e-07 0)
(0.000966388 -9.89763e-07 0)
(0.000966403 -1.40564e-06 0)
(0.000966428 -1.81305e-06 0)
(0.000966502 -2.21393e-06 0)
(0.000966568 -2.6229e-06 0)
(0.000966607 -3.06638e-06 0)
(0.000966696 -3.49469e-06 0)
(0.000966747 -3.94545e-06 0)
(0.00096678 -4.3908e-06 0)
(0.000966852 -4.86077e-06 0)
(0.000966926 -5.35805e-06 0)
(0.000966972 -5.82832e-06 0)
(0.000967009 -6.29705e-06 0)
(0.000967029 -6.77981e-06 0)
(0.00096704 -7.28588e-06 0)
(0.000967051 -7.77767e-06 0)
(0.000967063 -8.27201e-06 0)
(0.000967048 -8.75965e-06 0)
(0.000966985 -9.22656e-06 0)
(0.000966953 -9.68048e-06 0)
(0.000966909 -1.01153e-05 0)
(0.000966809 -1.05541e-05 0)
(0.000966698 -1.09768e-05 0)
(0.00096656 -1.13746e-05 0)
(0.00096642 -1.17602e-05 0)
(0.000966281 -1.20984e-05 0)
(0.000966122 -1.24141e-05 0)
(0.000965906 -1.2693e-05 0)
(0.000965689 -1.29587e-05 0)
(0.000965461 -1.32097e-05 0)
(0.000965194 -1.34133e-05 0)
(0.000964927 -1.36049e-05 0)
(0.000964677 -1.37547e-05 0)
(0.000964408 -1.3868e-05 0)
(0.000964089 -1.39538e-05 0)
(0.000963769 -1.40057e-05 0)
(0.000963448 -1.40251e-05 0)
(0.000963126 -1.40207e-05 0)
(0.000962783 -1.39824e-05 0)
(0.000962449 -1.39147e-05 0)
(0.000962093 -1.38267e-05 0)
(0.000961737 -1.37102e-05 0)
(0.000961379 -1.3571e-05 0)
(0.000961021 -1.34067e-05 0)
(0.000960651 -1.3219e-05 0)
(0.000960289 -1.30104e-05 0)
(0.000959936 -1.27855e-05 0)
(0.000959582 -1.25439e-05 0)
(0.000959227 -1.22869e-05 0)
(0.000958872 -1.20161e-05 0)
(0.00095852 -1.17327e-05 0)
(0.000958174 -1.14377e-05 0)
(0.000957833 -1.11328e-05 0)
(0.000957496 -1.082e-05 0)
(0.000957163 -1.05005e-05 0)
(0.000956834 -1.01757e-05 0)
(0.000956512 -9.84674e-06 0)
(0.000956196 -9.51499e-06 0)
(0.000955888 -9.18114e-06 0)
(0.000955588 -8.84606e-06 0)
(0.000955298 -8.51082e-06 0)
(0.000955019 -8.17589e-06 0)
(0.00095475 -7.84182e-06 0)
(0.000954492 -7.50911e-06 0)
(0.000954242 -7.17823e-06 0)
(0.000953998 -6.84986e-06 0)
(0.000953755 -6.52466e-06 0)
(0.000953515 -6.20339e-06 0)
(0.000953276 -5.88686e-06 0)
(0.000953042 -5.57578e-06 0)
(0.000952812 -5.27057e-06 0)
(0.000952589 -4.97166e-06 0)
(0.000952378 -4.67917e-06 0)
(0.000952177 -4.3933e-06 0)
(0.000951988 -4.11415e-06 0)
(0.00095181 -3.84186e-06 0)
(0.000951645 -3.57629e-06 0)
(0.000951492 -3.31758e-06 0)
(0.00095135 -3.06609e-06 0)
(0.00095122 -2.8213e-06 0)
(0.000951098 -2.5837e-06 0)
(0.000950987 -2.35364e-06 0)
(0.000966533 -1.78308e-07 0)
(0.000966554 -6.50429e-07 0)
(0.000966596 -1.00213e-06 0)
(0.00096664 -1.39621e-06 0)
(0.000966686 -1.82032e-06 0)
(0.000966752 -2.26608e-06 0)
(0.000966849 -2.66396e-06 0)
(0.000966918 -3.11134e-06 0)
(0.000966989 -3.56105e-06 0)
(0.000967071 -4.00171e-06 0)
(0.000967145 -4.49255e-06 0)
(0.000967259 -5.00145e-06 0)
(0.000967326 -5.50759e-06 0)
(0.000967366 -5.99265e-06 0)
(0.000967416 -6.5039e-06 0)
(0.000967497 -7.03604e-06 0)
(0.000967521 -7.5744e-06 0)
(0.000967547 -8.12499e-06 0)
(0.000967564 -8.65447e-06 0)
(0.000967553 -9.16132e-06 0)
(0.000967505 -9.67545e-06 0)
(0.000967458 -1.02037e-05 0)
(0.0009674 -1.0694e-05 0)
(0.000967325 -1.11691e-05 0)
(0.000967203 -1.16389e-05 0)
(0.000967079 -1.20907e-05 0)
(0.000966907 -1.25251e-05 0)
(0.000966718 -1.2919e-05 0)
(0.000966506 -1.32731e-05 0)
(0.000966287 -1.36008e-05 0)
(0.000966054 -1.39229e-05 0)
(0.000965795 -1.41994e-05 0)
(0.000965494 -1.44547e-05 0)
(0.000965194 -1.46931e-05 0)
(0.000964844 -1.48847e-05 0)
(0.000964522 -1.50288e-05 0)
(0.000964161 -1.51335e-05 0)
(0.000963788 -1.52162e-05 0)
(0.000963404 -1.52636e-05 0)
(0.000963018 -1.52743e-05 0)
(0.000962602 -1.52575e-05 0)
(0.000962203 -1.52048e-05 0)
(0.000961785 -1.51188e-05 0)
(0.000961354 -1.50033e-05 0)
(0.000960922 -1.48638e-05 0)
(0.000960489 -1.47006e-05 0)
(0.000960053 -1.45122e-05 0)
(0.000959627 -1.43012e-05 0)
(0.000959197 -1.40679e-05 0)
(0.000958772 -1.38135e-05 0)
(0.000958348 -1.35406e-05 0)
(0.000957926 -1.32515e-05 0)
(0.000957508 -1.29484e-05 0)
(0.000957097 -1.26318e-05 0)
(0.000956692 -1.23034e-05 0)
(0.000956294 -1.19648e-05 0)
(0.000955903 -1.16178e-05 0)
(0.00095552 -1.12637e-05 0)
(0.000955146 -1.0904e-05 0)
(0.00095478 -1.05397e-05 0)
(0.00095442 -1.01717e-05 0)
(0.000954067 -9.8012e-06 0)
(0.00095372 -9.42932e-06 0)
(0.000953377 -9.05711e-06 0)
(0.000953038 -8.68585e-06 0)
(0.000952705 -8.31673e-06 0)
(0.000952379 -7.95058e-06 0)
(0.000952066 -7.58804e-06 0)
(0.000951766 -7.22962e-06 0)
(0.000951483 -6.87569e-06 0)
(0.000951219 -6.52647e-06 0)
(0.000950969 -6.18217e-06 0)
(0.000950734 -5.84312e-06 0)
(0.000950512 -5.50968e-06 0)
(0.000950302 -5.18231e-06 0)
(0.000950101 -4.86141e-06 0)
(0.000949911 -4.54731e-06 0)
(0.000949731 -4.24037e-06 0)
(0.000949562 -3.94087e-06 0)
(0.000949402 -3.64884e-06 0)
(0.000949252 -3.36463e-06 0)
(0.000949113 -3.08845e-06 0)
(0.000948982 -2.82029e-06 0)
(0.00094886 -2.56014e-06 0)
(0.00096677 -1.60894e-07 0)
(0.000966792 -6.01077e-07 0)
(0.000966824 -9.54558e-07 0)
(0.000966898 -1.34514e-06 0)
(0.000966992 -1.74032e-06 0)
(0.000967041 -2.18252e-06 0)
(0.000967129 -2.59019e-06 0)
(0.000967248 -3.00028e-06 0)
(0.00096734 -3.46066e-06 0)
(0.000967444 -3.92659e-06 0)
(0.000967568 -4.42454e-06 0)
(0.000967674 -4.9241e-06 0)
(0.000967744 -5.41744e-06 0)
(0.000967826 -5.92284e-06 0)
(0.000967938 -6.48533e-06 0)
(0.000968012 -7.04049e-06 0)
(0.000968069 -7.57449e-06 0)
(0.000968119 -8.1544e-06 0)
(0.000968111 -8.70534e-06 0)
(0.000968105 -9.25413e-06 0)
(0.0009681 -9.81269e-06 0)
(0.000968067 -1.038e-05 0)
(0.000967987 -1.09213e-05 0)
(0.000967907 -1.14278e-05 0)
(0.0009678 -1.19403e-05 0)
(0.000967654 -1.24322e-05 0)
(0.00096746 -1.28912e-05 0)
(0.000967247 -1.33383e-05 0)
(0.000967024 -1.37511e-05 0)
(0.000966791 -1.41526e-05 0)
(0.000966517 -1.45123e-05 0)
(0.000966206 -1.48242e-05 0)
(0.000965892 -1.5119e-05 0)
(0.00096555 -1.53632e-05 0)
(0.000965157 -1.55948e-05 0)
(0.000964745 -1.57784e-05 0)
(0.00096434 -1.59259e-05 0)
(0.000963905 -1.60355e-05 0)
(0.000963459 -1.61059e-05 0)
(0.000963002 -1.61386e-05 0)
(0.000962532 -1.61348e-05 0)
(0.000962042 -1.60966e-05 0)
(0.00096155 -1.60206e-05 0)
(0.000961055 -1.59178e-05 0)
(0.000960559 -1.57828e-05 0)
(0.000960052 -1.56199e-05 0)
(0.000959547 -1.54271e-05 0)
(0.00095904 -1.52077e-05 0)
(0.000958535 -1.49613e-05 0)
(0.000958033 -1.46924e-05 0)
(0.000957535 -1.44017e-05 0)
(0.000957043 -1.40921e-05 0)
(0.000956556 -1.37656e-05 0)
(0.000956075 -1.34238e-05 0)
(0.000955602 -1.30685e-05 0)
(0.000955138 -1.27009e-05 0)
(0.000954683 -1.2323e-05 0)
(0.000954237 -1.19369e-05 0)
(0.000953802 -1.15439e-05 0)
(0.000953377 -1.11453e-05 0)
(0.000952962 -1.07428e-05 0)
(0.000952559 -1.03377e-05 0)
(0.000952171 -9.93111e-06 0)
(0.0009518 -9.52414e-06 0)
(0.000951445 -9.11762e-06 0)
(0.000951104 -8.7122e-06 0)
(0.000950778 -8.30838e-06 0)
(0.000950459 -7.90697e-06 0)
(0.000950144 -7.50895e-06 0)
(0.000949835 -7.11533e-06 0)
(0.000949528 -6.72704e-06 0)
(0.000949226 -6.3449e-06 0)
(0.000948933 -5.96963e-06 0)
(0.00094865 -5.60169e-06 0)
(0.000948381 -5.24139e-06 0)
(0.000948126 -4.88893e-06 0)
(0.000947886 -4.54452e-06 0)
(0.000947661 -4.20815e-06 0)
(0.000947451 -3.88e-06 0)
(0.000947255 -3.55999e-06 0)
(0.000947074 -3.24829e-06 0)
(0.000946905 -2.94516e-06 0)
(0.000946748 -2.65012e-06 0)
(0.000946602 -2.36402e-06 0)
(0.000967022 -1.37782e-07 0)
(0.000967053 -5.26904e-07 0)
(0.000967095 -8.67569e-07 0)
(0.00096717 -1.26953e-06 0)
(0.000967284 -1.61962e-06 0)
(0.000967372 -2.00673e-06 0)
(0.000967452 -2.4171e-06 0)
(0.000967592 -2.82979e-06 0)
(0.000967724 -3.27591e-06 0)
(0.000967858 -3.73247e-06 0)
(0.000967994 -4.23028e-06 0)
(0.000968122 -4.69721e-06 0)
(0.000968214 -5.19369e-06 0)
(0.000968346 -5.75669e-06 0)
(0.00096848 -6.30622e-06 0)
(0.000968548 -6.85574e-06 0)
(0.000968648 -7.42233e-06 0)
(0.00096871 -7.98998e-06 0)
(0.000968726 -8.57006e-06 0)
(0.000968754 -9.17631e-06 0)
(0.000968763 -9.76569e-06 0)
(0.000968725 -1.0348e-05 0)
(0.000968631 -1.09192e-05 0)
(0.000968567 -1.14692e-05 0)
(0.000968465 -1.20098e-05 0)
(0.000968296 -1.25335e-05 0)
(0.000968109 -1.30424e-05 0)
(0.000967891 -1.35443e-05 0)
(0.000967646 -1.40128e-05 0)
(0.00096738 -1.44576e-05 0)
(0.000967057 -1.48501e-05 0)
(0.000966714 -1.52212e-05 0)
(0.000966351 -1.55591e-05 0)
(0.000965966 -1.58389e-05 0)
(0.000965541 -1.60952e-05 0)
(0.000965077 -1.63154e-05 0)
(0.000964611 -1.65022e-05 0)
(0.000964105 -1.66452e-05 0)
(0.000963596 -1.67464e-05 0)
(0.000963067 -1.68125e-05 0)
(0.000962526 -1.68348e-05 0)
(0.000961963 -1.68165e-05 0)
(0.000961399 -1.67659e-05 0)
(0.000960822 -1.66769e-05 0)
(0.000960243 -1.65506e-05 0)
(0.000959656 -1.63888e-05 0)
(0.000959064 -1.6197e-05 0)
(0.000958473 -1.5975e-05 0)
(0.000957888 -1.57243e-05 0)
(0.000957305 -1.54473e-05 0)
(0.000956727 -1.51464e-05 0)
(0.000956156 -1.48243e-05 0)
(0.000955591 -1.44819e-05 0)
(0.000955034 -1.41218e-05 0)
(0.000954485 -1.37456e-05 0)
(0.000953947 -1.33553e-05 0)
(0.000953421 -1.29527e-05 0)
(0.000952907 -1.25397e-05 0)
(0.000952403 -1.21176e-05 0)
(0.000951911 -1.16882e-05 0)
(0.000951432 -1.12532e-05 0)
(0.000950963 -1.08139e-05 0)
(0.000950504 -1.03714e-05 0)
(0.000950052 -9.92738e-06 0)
(0.000949607 -9.48304e-06 0)
(0.00094917 -9.03982e-06 0)
(0.000948744 -8.59906e-06 0)
(0.000948334 -8.1619e-06 0)
(0.000947942 -7.72897e-06 0)
(0.000947574 -7.30075e-06 0)
(0.000947229 -6.87754e-06 0)
(0.000946906 -6.45967e-06 0)
(0.000946601 -6.04753e-06 0)
(0.000946313 -5.64169e-06 0)
(0.000946041 -5.24266e-06 0)
(0.000945781 -4.85088e-06 0)
(0.000945535 -4.46697e-06 0)
(0.000945301 -4.09133e-06 0)
(0.000945081 -3.72436e-06 0)
(0.000944871 -3.36549e-06 0)
(0.000944676 -3.01648e-06 0)
(0.000944492 -2.6766e-06 0)
(0.000944319 -2.34618e-06 0)
(0.000944157 -2.02633e-06 0)
(0.00096721 -1.2241e-07 0)
(0.000967251 -4.80415e-07 0)
(0.000967323 -7.86333e-07 0)
(0.000967398 -1.15576e-06 0)
(0.000967503 -1.47863e-06 0)
(0.000967611 -1.81903e-06 0)
(0.00096774 -2.20299e-06 0)
(0.0009679 -2.62837e-06 0)
(0.000968034 -3.05119e-06 0)
(0.000968207 -3.48655e-06 0)
(0.000968355 -3.95122e-06 0)
(0.000968485 -4.42691e-06 0)
(0.000968666 -4.93533e-06 0)
(0.000968829 -5.49727e-06 0)
(0.000968947 -6.04061e-06 0)
(0.000969067 -6.60037e-06 0)
(0.000969169 -7.2034e-06 0)
(0.000969265 -7.78065e-06 0)
(0.000969323 -8.37626e-06 0)
(0.000969364 -8.99343e-06 0)
(0.000969378 -9.60495e-06 0)
(0.000969364 -1.02059e-05 0)
(0.000969285 -1.08197e-05 0)
(0.000969197 -1.14272e-05 0)
(0.000969091 -1.19949e-05 0)
(0.000968947 -1.25631e-05 0)
(0.000968755 -1.31111e-05 0)
(0.000968535 -1.36446e-05 0)
(0.000968257 -1.4168e-05 0)
(0.00096796 -1.46411e-05 0)
(0.000967615 -1.50981e-05 0)
(0.000967248 -1.5525e-05 0)
(0.000966835 -1.59041e-05 0)
(0.000966389 -1.62463e-05 0)
(0.000965925 -1.65426e-05 0)
(0.000965429 -1.68087e-05 0)
(0.000964892 -1.70336e-05 0)
(0.000964335 -1.72143e-05 0)
(0.000963755 -1.73586e-05 0)
(0.000963164 -1.74582e-05 0)
(0.000962532 -1.75134e-05 0)
(0.000961897 -1.75282e-05 0)
(0.000961251 -1.75028e-05 0)
(0.000960593 -1.74356e-05 0)
(0.000959924 -1.73275e-05 0)
(0.000959258 -1.71807e-05 0)
(0.000958583 -1.69977e-05 0)
(0.000957905 -1.67815e-05 0)
(0.000957228 -1.65342e-05 0)
(0.000956556 -1.62555e-05 0)
(0.000955893 -1.59481e-05 0)
(0.000955236 -1.56134e-05 0)
(0.000954585 -1.52544e-05 0)
(0.000953943 -1.48724e-05 0)
(0.000953312 -1.44715e-05 0)
(0.000952693 -1.4053e-05 0)
(0.000952088 -1.36191e-05 0)
(0.000951495 -1.31716e-05 0)
(0.000950917 -1.27126e-05 0)
(0.000950354 -1.22445e-05 0)
(0.000949806 -1.1769e-05 0)
(0.000949274 -1.12879e-05 0)
(0.000948761 -1.08028e-05 0)
(0.000948271 -1.03153e-05 0)
(0.000947802 -9.82649e-06 0)
(0.000947355 -9.33745e-06 0)
(0.000946926 -8.84915e-06 0)
(0.000946511 -8.36247e-06 0)
(0.000946104 -7.87842e-06 0)
(0.000945703 -7.39832e-06 0)
(0.000945307 -6.92352e-06 0)
(0.00094492 -6.45517e-06 0)
(0.000944545 -5.99425e-06 0)
(0.000944184 -5.54143e-06 0)
(0.00094384 -5.09722e-06 0)
(0.000943515 -4.66198e-06 0)
(0.00094321 -4.23598e-06 0)
(0.000942924 -3.81939e-06 0)
(0.000942656 -3.41234e-06 0)
(0.000942407 -3.01474e-06 0)
(0.000942174 -2.62737e-06 0)
(0.000941956 -2.25031e-06 0)
(0.000941752 -1.88319e-06 0)
(0.000941562 -1.52657e-06 0)
(0.000967356 -1.1261e-07 0)
(0.000967417 -4.56001e-07 0)
(0.000967498 -7.05058e-07 0)
(0.000967583 -1.01903e-06 0)
(0.000967698 -1.31786e-06 0)
(0.000967836 -1.64273e-06 0)
(0.000967994 -2.01344e-06 0)
(0.000968175 -2.39833e-06 0)
(0.000968338 -2.7942e-06 0)
(0.000968513 -3.22538e-06 0)
(0.0009687 -3.65058e-06 0)
(0.000968881 -4.14954e-06 0)