/*--------------------------------*- C++ -*----------------------------------*\
  =========                 |
  \\      /  F ield         | OpenFOAM: The Open Source CFD Toolbox
   \\    /   O peration     | Website:  https://openfoam.org
    \\  /    A nd           | Version:  10
     \\/     M anipulation  |
\*---------------------------------------------------------------------------*/
FoamFile
{
    format      ascii;
    class       volVectorField;
    location    "0";
    object      U_d4;
}
// * * * * * * * * * * * * * * * * * * * * * * * * * * * * * * * * * * * * * //

dimensions      [0 1 -1 0 0 0 0];

internalField   nonuniform List<vector> 
84253
(
(0.000888571 -1.01298e-08 0)
(0.000888559 -2.23446e-08 0)
(0.000888563 -3.20597e-08 0)
(0.000888567 -4.86522e-08 0)
(0.00088856 -6.40772e-08 0)
(0.00088856 -8.98834e-08 0)
(0.000888566 -1.17405e-07 0)
(0.000888566 -1.52843e-07 0)
(0.000888567 -1.97044e-07 0)
(0.000888563 -2.34113e-07 0)
(0.000888563 -2.86475e-07 0)
(0.000888561 -3.44996e-07 0)
(0.000888569 -4.02842e-07 0)
(0.000888569 -4.70262e-07 0)
(0.000888567 -5.43988e-07 0)
(0.000888568 -6.23314e-07 0)
(0.000888575 -7.01251e-07 0)
(0.000888571 -7.93846e-07 0)
(0.000888572 -8.88947e-07 0)
(0.000888567 -9.86831e-07 0)
(0.000888576 -1.0901e-06 0)
(0.000888582 -1.19245e-06 0)
(0.000888573 -1.29918e-06 0)
(0.000888579 -1.40226e-06 0)
(0.000888589 -1.51048e-06 0)
(0.000888583 -1.62045e-06 0)
(0.000888582 -1.73209e-06 0)
(0.000888588 -1.84145e-06 0)
(0.000888591 -1.95094e-06 0)
(0.000888599 -2.06636e-06 0)
(0.000888598 -2.17724e-06 0)
(0.000888599 -2.2859e-06 0)
(0.000888605 -2.39198e-06 0)
(0.000888608 -2.49438e-06 0)
(0.000888611 -2.59527e-06 0)
(0.000888617 -2.69649e-06 0)
(0.000888626 -2.79425e-06 0)
(0.000888629 -2.88908e-06 0)
(0.000888635 -2.98237e-06 0)
(0.000888642 -3.07201e-06 0)
(0.000888646 -3.15732e-06 0)
(0.000888656 -3.24085e-06 0)
(0.000888663 -3.32139e-06 0)
(0.000888675 -3.39869e-06 0)
(0.000888687 -3.47354e-06 0)
(0.000888696 -3.54603e-06 0)
(0.000888707 -3.61643e-06 0)
(0.000888718 -3.68466e-06 0)
(0.000888731 -3.75131e-06 0)
(0.000888746 -3.81624e-06 0)
(0.00088876 -3.88008e-06 0)
(0.000888777 -3.94322e-06 0)
(0.000888795 -4.00562e-06 0)
(0.000888816 -4.06728e-06 0)
(0.000888838 -4.12957e-06 0)
(0.00088886 -4.19157e-06 0)
(0.000888885 -4.2538e-06 0)
(0.000888911 -4.31736e-06 0)
(0.000888938 -4.38171e-06 0)
(0.000888969 -4.44666e-06 0)
(0.000889001 -4.51255e-06 0)
(0.000889033 -4.57951e-06 0)
(0.000889064 -4.64706e-06 0)
(0.000889098 -4.71518e-06 0)
(0.000889133 -4.7834e-06 0)
(0.00088917 -4.85109e-06 0)
(0.00088921 -4.91794e-06 0)
(0.000889251 -4.98298e-06 0)
(0.000889297 -5.04552e-06 0)
(0.000889345 -5.1049e-06 0)
(0.000889396 -5.15997e-06 0)
(0.000889448 -5.2099e-06 0)
(0.000889503 -5.25396e-06 0)
(0.000889557 -5.29121e-06 0)
(0.00088961 -5.32091e-06 0)
(0.000889661 -5.34257e-06 0)
(0.000889712 -5.35568e-06 0)
(0.000889759 -5.35993e-06 0)
(0.000889804 -5.35513e-06 0)
(0.000889845 -5.34125e-06 0)
(0.000889883 -5.31862e-06 0)
(0.000889919 -5.28766e-06 0)
(0.00088995 -5.24822e-06 0)
(0.000889978 -5.20221e-06 0)
(0.000910427 -3.68531e-08 0)
(0.000910465 -1.0348e-07 0)
(0.000910465 -1.46873e-07 0)
(0.000910467 -2.03919e-07 0)
(0.000910486 -2.7641e-07 0)
(0.000910487 -3.69836e-07 0)
(0.000910488 -4.66264e-07 0)
(0.000910508 -5.77077e-07 0)
(0.00091051 -7.00641e-07 0)
(0.000910521 -8.58589e-07 0)
(0.000910551 -1.03025e-06 0)
(0.000910553 -1.21942e-06 0)
(0.000910556 -1.42341e-06 0)
(0.000910577 -1.63966e-06 0)
(0.000910598 -1.87814e-06 0)
(0.000910601 -2.13571e-06 0)
(0.000910614 -2.40155e-06 0)
(0.000910644 -2.6753e-06 0)
(0.000910648 -2.96591e-06 0)
(0.000910668 -3.27495e-06 0)
(0.000910673 -3.59714e-06 0)
(0.000910665 -3.91416e-06 0)
(0.000910688 -4.24555e-06 0)
(0.000910681 -4.5949e-06 0)
(0.000910685 -4.93324e-06 0)
(0.000910697 -5.27311e-06 0)
(0.0009107 -5.62054e-06 0)
(0.000910685 -5.96726e-06 0)
(0.000910687 -6.31302e-06 0)
(0.00091068 -6.63992e-06 0)
(0.000910674 -6.96601e-06 0)
(0.000910657 -7.2955e-06 0)
(0.000910631 -7.61448e-06 0)
(0.000910614 -7.93056e-06 0)
(0.000910597 -8.23723e-06 0)
(0.000910581 -8.532e-06 0)
(0.000910545 -8.81382e-06 0)
(0.000910519 -9.08488e-06 0)
(0.000910492 -9.34543e-06 0)
(0.000910446 -9.59227e-06 0)
(0.000910409 -9.83207e-06 0)
(0.000910371 -1.00576e-05 0)
(0.000910324 -1.02687e-05 0)
(0.000910277 -1.04678e-05 0)
(0.00091023 -1.06522e-05 0)
(0.000910172 -1.08234e-05 0)
(0.000910124 -1.09808e-05 0)
(0.000910066 -1.11251e-05 0)
(0.000910008 -1.12572e-05 0)
(0.000909949 -1.1376e-05 0)
(0.00090989 -1.14816e-05 0)
(0.000909821 -1.15746e-05 0)
(0.000909762 -1.16554e-05 0)
(0.000909692 -1.17246e-05 0)
(0.000909623 -1.17813e-05 0)
(0.000909552 -1.18271e-05 0)
(0.000909482 -1.1862e-05 0)
(0.000909413 -1.18859e-05 0)
(0.000909342 -1.18999e-05 0)
(0.000909262 -1.19044e-05 0)
(0.000909192 -1.18994e-05 0)
(0.000909122 -1.18863e-05 0)
(0.000909052 -1.18662e-05 0)
(0.000908983 -1.18396e-05 0)
(0.000908913 -1.18083e-05 0)
(0.000908834 -1.17735e-05 0)
(0.000908766 -1.17367e-05 0)
(0.000908688 -1.16996e-05 0)
(0.000908611 -1.16643e-05 0)
(0.000908526 -1.16323e-05 0)
(0.00090844 -1.16059e-05 0)
(0.000908346 -1.15872e-05 0)
(0.000908262 -1.1578e-05 0)
(0.000908169 -1.15799e-05 0)
(0.000908077 -1.15944e-05 0)
(0.000907984 -1.16225e-05 0)
(0.000907892 -1.16654e-05 0)
(0.000907809 -1.1724e-05 0)
(0.000907736 -1.17988e-05 0)
(0.000907663 -1.18899e-05 0)
(0.000907589 -1.19967e-05 0)
(0.000907524 -1.21187e-05 0)
(0.000907479 -1.22576e-05 0)
(0.000907432 -1.24076e-05 0)
(0.0009068 -4.62149e-08 0)
(0.000906864 -1.65503e-07 0)
(0.000906875 -2.58428e-07 0)
(0.000906895 -3.89456e-07 0)
(0.000906917 -5.2216e-07 0)
(0.00090694 -6.63227e-07 0)
(0.000906963 -8.44466e-07 0)
(0.000906987 -1.05292e-06 0)
(0.000907029 -1.27979e-06 0)
(0.000907082 -1.56208e-06 0)
(0.000907107 -1.84357e-06 0)
(0.000907152 -2.14418e-06 0)
(0.000907197 -2.50911e-06 0)
(0.000907234 -2.8921e-06 0)
(0.000907289 -3.29657e-06 0)
(0.000907326 -3.72091e-06 0)
(0.000907363 -4.20071e-06 0)
(0.000907392 -4.68732e-06 0)
(0.000907448 -5.19146e-06 0)
(0.000907496 -5.71666e-06 0)
(0.000907525 -6.24748e-06 0)
(0.000907545 -6.81574e-06 0)
(0.000907593 -7.38563e-06 0)
(0.000907622 -7.97276e-06 0)
(0.000907614 -8.57195e-06 0)
(0.000907625 -9.17196e-06 0)
(0.000907635 -9.76777e-06 0)
(0.000907647 -1.0373e-05 0)
(0.00090762 -1.09746e-05 0)
(0.000907585 -1.15666e-05 0)
(0.000907585 -1.21561e-05 0)
(0.000907558 -1.27342e-05 0)
(0.00090753 -1.33121e-05 0)
(0.000907493 -1.38705e-05 0)
(0.000907428 -1.44121e-05 0)
(0.000907363 -1.49379e-05 0)
(0.000907297 -1.54526e-05 0)
(0.000907222 -1.5951e-05 0)
(0.000907137 -1.64277e-05 0)
(0.000907062 -1.68879e-05 0)
(0.000906967 -1.73278e-05 0)
(0.000906854 -1.77484e-05 0)
(0.00090674 -1.81509e-05 0)
(0.000906626 -1.85341e-05 0)
(0.000906494 -1.88973e-05 0)
(0.000906352 -1.92415e-05 0)
(0.000906211 -1.95667e-05 0)
(0.000906059 -1.98732e-05 0)
(0.000905899 -2.01613e-05 0)
(0.000905729 -2.04325e-05 0)
(0.000905549 -2.06867e-05 0)
(0.000905371 -2.09252e-05 0)
(0.000905182 -2.11489e-05 0)
(0.000904985 -2.13582e-05 0)
(0.000904778 -2.15544e-05 0)
(0.000904562 -2.1738e-05 0)
(0.000904337 -2.19104e-05 0)
(0.000904103 -2.20729e-05 0)
(0.000903869 -2.22263e-05 0)
(0.000903616 -2.23726e-05 0)
(0.000903364 -2.25131e-05 0)
(0.000903102 -2.26483e-05 0)
(0.000902832 -2.27794e-05 0)
(0.000902552 -2.2907e-05 0)
(0.000902272 -2.30322e-05 0)
(0.000901992 -2.31559e-05 0)
(0.000901703 -2.32783e-05 0)
(0.000901424 -2.33994e-05 0)
(0.000901144 -2.35193e-05 0)
(0.000900874 -2.36373e-05 0)
(0.00090061 -2.37528e-05 0)
(0.000900353 -2.38645e-05 0)
(0.000900105 -2.39714e-05 0)
(0.000899865 -2.40721e-05 0)
(0.000899633 -2.41649e-05 0)
(0.000899412 -2.4248e-05 0)
(0.000899201 -2.43196e-05 0)
(0.000899002 -2.43777e-05 0)
(0.000898816 -2.44207e-05 0)
(0.000898643 -2.44472e-05 0)
(0.000898482 -2.44566e-05 0)
(0.000898335 -2.44477e-05 0)
(0.000898201 -2.44187e-05 0)
(0.00089808 -2.4376e-05 0)
(0.000906253 -6.46879e-08 0)
(0.000906292 -2.27007e-07 0)
(0.000906322 -3.48183e-07 0)
(0.000906364 -5.09027e-07 0)
(0.000906397 -6.94443e-07 0)
(0.00090646 -9.06639e-07 0)
(0.000906533 -1.1524e-06 0)
(0.000906598 -1.44379e-06 0)
(0.000906692 -1.77272e-06 0)
(0.000906777 -2.11906e-06 0)
(0.000906836 -2.51889e-06 0)
(0.000906952 -2.96327e-06 0)
(0.000907068 -3.44895e-06 0)
(0.000907158 -3.97668e-06 0)
(0.000907247 -4.53397e-06 0)
(0.000907375 -5.13603e-06 0)
(0.000907493 -5.77531e-06 0)
(0.000907586 -6.46293e-06 0)
(0.000907689 -7.18479e-06 0)
(0.000907781 -7.91635e-06 0)
(0.000907874 -8.67152e-06 0)
(0.000907977 -9.4658e-06 0)
(0.00090806 -1.02746e-05 0)
(0.000908143 -1.10784e-05 0)
(0.00090821 -1.19125e-05 0)
(0.000908265 -1.27684e-05 0)
(0.000908332 -1.36169e-05 0)
(0.000908376 -1.446e-05 0)
(0.000908413 -1.53031e-05 0)
(0.000908429 -1.61597e-05 0)
(0.000908447 -1.70077e-05 0)
(0.000908463 -1.78302e-05 0)
(0.000908451 -1.86462e-05 0)
(0.00090841 -1.94471e-05 0)
(0.000908388 -2.02316e-05 0)
(0.000908354 -2.09963e-05 0)
(0.000908312 -2.17379e-05 0)
(0.000908239 -2.24555e-05 0)
(0.000908166 -2.31489e-05 0)
(0.000908084 -2.38197e-05 0)
(0.000907991 -2.44569e-05 0)
(0.000907898 -2.50679e-05 0)
(0.000907785 -2.56568e-05 0)
(0.000907662 -2.62177e-05 0)
(0.000907538 -2.67524e-05 0)
(0.000907404 -2.72626e-05 0)
(0.00090727 -2.77476e-05 0)
(0.000907115 -2.8206e-05 0)
(0.00090697 -2.86376e-05 0)
(0.000906805 -2.90449e-05 0)
(0.000906639 -2.9429e-05 0)
(0.000906473 -2.97897e-05 0)
(0.000906307 -3.01273e-05 0)
(0.00090612 -3.04427e-05 0)
(0.000905942 -3.07377e-05 0)
(0.000905764 -3.10126e-05 0)
(0.000905585 -3.12688e-05 0)
(0.000905405 -3.15065e-05 0)
(0.000905224 -3.17265e-05 0)
(0.000905043 -3.19298e-05 0)
(0.00090487 -3.21171e-05 0)
(0.000904707 -3.2289e-05 0)
(0.000904542 -3.24456e-05 0)
(0.000904386 -3.25878e-05 0)
(0.00090423 -3.27159e-05 0)
(0.000904091 -3.28304e-05 0)
(0.000903952 -3.29316e-05 0)
(0.000903812 -3.30209e-05 0)
(0.000903691 -3.30993e-05 0)
(0.00090356 -3.31676e-05 0)
(0.000903439 -3.32271e-05 0)
(0.000903317 -3.32787e-05 0)
(0.000903204 -3.33239e-05 0)
(0.000903101 -3.33643e-05 0)
(0.000903007 -3.34015e-05 0)
(0.000902913 -3.34372e-05 0)
(0.000902839 -3.34735e-05 0)
(0.000902764 -3.3512e-05 0)
(0.00090269 -3.35546e-05 0)
(0.000902625 -3.36023e-05 0)
(0.00090256 -3.36561e-05 0)
(0.000902506 -3.37169e-05 0)
(0.000902451 -3.37863e-05 0)
(0.000902398 -3.38619e-05 0)
(0.000908161 -5.93626e-08 0)
(0.000908192 -2.36945e-07 0)
(0.000908223 -3.93786e-07 0)
(0.000908305 -5.81115e-07 0)
(0.000908388 -8.06279e-07 0)
(0.000908464 -1.08089e-06 0)
(0.000908579 -1.37391e-06 0)
(0.000908705 -1.70141e-06 0)
(0.000908833 -2.09675e-06 0)
(0.000908972 -2.50861e-06 0)
(0.000909131 -3.01563e-06 0)
(0.000909291 -3.59211e-06 0)
(0.000909462 -4.17662e-06 0)
(0.000909625 -4.82928e-06 0)
(0.000909799 -5.54602e-06 0)
(0.000909992 -6.30881e-06 0)
(0.000910177 -7.10646e-06 0)
(0.000910372 -7.95601e-06 0)
(0.000910531 -8.83787e-06 0)
(0.000910691 -9.76886e-06 0)
(0.000910869 -1.07524e-05 0)
(0.000911038 -1.17567e-05 0)
(0.000911171 -1.27838e-05 0)
(0.000911313 -1.383e-05 0)
(0.000911464 -1.48935e-05 0)
(0.000911586 -1.59753e-05 0)
(0.000911672 -1.70732e-05 0)
(0.000911756 -1.81635e-05 0)
(0.00091184 -1.92521e-05 0)
(0.000911913 -2.03382e-05 0)
(0.00091194 -2.14204e-05 0)
(0.000911967 -2.24906e-05 0)
(0.000911991 -2.35375e-05 0)
(0.000911996 -2.45832e-05 0)
(0.000911963 -2.56072e-05 0)
(0.00091191 -2.66016e-05 0)
(0.000911856 -2.75647e-05 0)
(0.000911781 -2.85062e-05 0)
(0.000911696 -2.94181e-05 0)
(0.000911591 -3.0294e-05 0)
(0.000911467 -3.1143e-05 0)
(0.000911341 -3.19569e-05 0)
(0.000911205 -3.27347e-05 0)
(0.000911049 -3.34793e-05 0)
(0.000910892 -3.4193e-05 0)
(0.000910714 -3.48715e-05 0)
(0.000910527 -3.55152e-05 0)
(0.000910329 -3.61246e-05 0)
(0.000910121 -3.67013e-05 0)
(0.000909913 -3.72457e-05 0)
(0.000909684 -3.77585e-05 0)
(0.000909455 -3.82401e-05 0)
(0.000909226 -3.86932e-05 0)
(0.000908986 -3.91189e-05 0)
(0.000908746 -3.95173e-05 0)
(0.000908496 -3.98901e-05 0)
(0.000908246 -4.0238e-05 0)
(0.000907996 -4.05628e-05 0)
(0.000907736 -4.08662e-05 0)
(0.000907476 -4.11484e-05 0)
(0.000907216 -4.14106e-05 0)
(0.000906946 -4.16544e-05 0)
(0.000906677 -4.18815e-05 0)
(0.000906398 -4.20933e-05 0)
(0.00090613 -4.22912e-05 0)
(0.000905852 -4.24763e-05 0)
(0.000905584 -4.26499e-05 0)
(0.000905316 -4.28125e-05 0)
(0.000905048 -4.29643e-05 0)
(0.0009048 -4.31058e-05 0)
(0.000904552 -4.32379e-05 0)
(0.000904313 -4.3361e-05 0)
(0.000904084 -4.34759e-05 0)
(0.000903854 -4.35827e-05 0)
(0.000903634 -4.36815e-05 0)
(0.000903413 -4.37728e-05 0)
(0.000903202 -4.38567e-05 0)
(0.000903 -4.39332e-05 0)
(0.000902806 -4.40022e-05 0)
(0.000902622 -4.40637e-05 0)
(0.000902446 -4.41176e-05 0)
(0.000902279 -4.41633e-05 0)
(0.00090212 -4.42009e-05 0)
(0.00090197 -4.42325e-05 0)
(0.000907493 -5.20236e-08 0)
(0.000907544 -2.21097e-07 0)
(0.000907615 -4.15578e-07 0)
(0.000907708 -6.27082e-07 0)
(0.000907832 -8.43003e-07 0)
(0.000907969 -1.12808e-06 0)
(0.000908108 -1.46781e-06 0)
(0.000908286 -1.8438e-06 0)
(0.000908486 -2.28803e-06 0)
(0.000908698 -2.79874e-06 0)
(0.000908957 -3.36531e-06 0)
(0.000909183 -3.9958e-06 0)
(0.00090942 -4.68801e-06 0)
(0.000909695 -5.46881e-06 0)
(0.000909953 -6.31188e-06 0)
(0.000910223 -7.20861e-06 0)
(0.000910503 -8.1565e-06 0)
(0.000910757 -9.15409e-06 0)
(0.000911022 -1.02081e-05 0)
(0.000911305 -1.13249e-05 0)
(0.000911571 -1.24943e-05 0)
(0.000911809 -1.36924e-05 0)
(0.000912029 -1.49344e-05 0)
(0.000912249 -1.62115e-05 0)
(0.000912459 -1.74962e-05 0)
(0.00091267 -1.87943e-05 0)
(0.000912832 -2.01109e-05 0)
(0.000912978 -2.14553e-05 0)
(0.000913101 -2.2806e-05 0)
(0.000913214 -2.41463e-05 0)
(0.000913308 -2.54702e-05 0)
(0.000913363 -2.67906e-05 0)
(0.000913417 -2.80991e-05 0)
(0.000913442 -2.93686e-05 0)
(0.000913428 -3.06197e-05 0)
(0.000913384 -3.1852e-05 0)
(0.000913337 -3.30549e-05 0)
(0.00091328 -3.42273e-05 0)
(0.000913174 -3.53668e-05 0)
(0.000913057 -3.64649e-05 0)
(0.000912929 -3.75305e-05 0)
(0.000912762 -3.85602e-05 0)
(0.000912593 -3.95428e-05 0)
(0.000912413 -4.04828e-05 0)
(0.000912202 -4.13805e-05 0)
(0.000911981 -4.22363e-05 0)
(0.00091175 -4.30502e-05 0)
(0.000911497 -4.38243e-05 0)
(0.000911244 -4.45582e-05 0)
(0.000910979 -4.52519e-05 0)
(0.000910694 -4.59069e-05 0)
(0.000910418 -4.6525e-05 0)
(0.00091013 -4.71072e-05 0)
(0.000909833 -4.76538e-05 0)
(0.000909534 -4.81664e-05 0)
(0.000909225 -4.86471e-05 0)
(0.000908915 -4.9097e-05 0)
(0.000908613 -4.95172e-05 0)
(0.000908301 -4.99096e-05 0)
(0.000907989 -5.02754e-05 0)
(0.000907685 -5.06159e-05 0)
(0.000907381 -5.09321e-05 0)
(0.000907086 -5.12253e-05 0)
(0.000906799 -5.14964e-05 0)
(0.000906521 -5.17462e-05 0)
(0.000906253 -5.19756e-05 0)
(0.000905983 -5.2186e-05 0)
(0.000905713 -5.2379e-05 0)
(0.000905443 -5.25557e-05 0)
(0.000905172 -5.27173e-05 0)
(0.000904911 -5.28651e-05 0)
(0.00090465 -5.30003e-05 0)
(0.000904397 -5.31238e-05 0)
(0.000904154 -5.32363e-05 0)
(0.00090392 -5.33387e-05 0)
(0.000903696 -5.34318e-05 0)
(0.00090348 -5.35162e-05 0)
(0.000903284 -5.35926e-05 0)
(0.000903087 -5.36618e-05 0)
(0.000902909 -5.37242e-05 0)
(0.00090273 -5.37805e-05 0)
(0.000902561 -5.38313e-05 0)
(0.000902411 -5.38775e-05 0)
(0.000902261 -5.39203e-05 0)
(0.000907639 -5.25071e-08 0)
(0.000907718 -2.08297e-07 0)
(0.00090781 -3.81677e-07 0)
(0.000907907 -5.92368e-07 0)
(0.000908073 -8.07925e-07 0)
(0.000908278 -1.06905e-06 0)
(0.000908489 -1.42472e-06 0)
(0.00090872 -1.84488e-06 0)
(0.000909002 -2.32179e-06 0)
(0.000909286 -2.90844e-06 0)
(0.000909593 -3.51299e-06 0)
(0.000909921 -4.19047e-06 0)
(0.00091028 -4.98059e-06 0)
(0.00091066 -5.84669e-06 0)
(0.000911005 -6.77793e-06 0)
(0.00091138 -7.79068e-06 0)
(0.000911739 -8.86303e-06 0)
(0.000912127 -1.00033e-05 0)
(0.000912507 -1.12331e-05 0)
(0.000912889 -1.25222e-05 0)
(0.000913253 -1.38486e-05 0)
(0.000913608 -1.52196e-05 0)
(0.000913954 -1.66556e-05 0)
(0.000914254 -1.81348e-05 0)
(0.000914544 -1.96417e-05 0)
(0.000914826 -2.11693e-05 0)
(0.000915097 -2.27114e-05 0)
(0.000915348 -2.42758e-05 0)
(0.000915561 -2.58618e-05 0)
(0.000915718 -2.74453e-05 0)
(0.000915842 -2.90151e-05 0)
(0.000915977 -3.05794e-05 0)
(0.000916052 -3.21268e-05 0)
(0.000916079 -3.36442e-05 0)
(0.000916132 -3.51435e-05 0)
(0.000916116 -3.66225e-05 0)
(0.00091608 -3.80723e-05 0)
(0.000916014 -3.9472e-05 0)
(0.000915916 -4.08353e-05 0)
(0.000915798 -4.21647e-05 0)
(0.000915658 -4.34437e-05 0)
(0.000915479 -4.46798e-05 0)
(0.000915279 -4.58708e-05 0)
(0.000915047 -4.70147e-05 0)
(0.000914814 -4.81046e-05 0)
(0.000914559 -4.91459e-05 0)
(0.000914284 -5.01393e-05 0)
(0.000913987 -5.10845e-05 0)
(0.000913679 -5.19812e-05 0)
(0.00091336 -5.28307e-05 0)
(0.000913039 -5.36346e-05 0)
(0.000912697 -5.43934e-05 0)
(0.000912354 -5.51066e-05 0)
(0.000912 -5.5776e-05 0)
(0.000911644 -5.64038e-05 0)
(0.000911287 -5.69914e-05 0)
(0.00091092 -5.75409e-05 0)
(0.000910551 -5.80525e-05 0)
(0.000910191 -5.8528e-05 0)
(0.00090982 -5.89695e-05 0)
(0.000909448 -5.9379e-05 0)
(0.000909085 -5.9758e-05 0)
(0.000908712 -6.01082e-05 0)
(0.000908338 -6.04316e-05 0)
(0.000907974 -6.07303e-05 0)
(0.000907609 -6.10057e-05 0)
(0.000907254 -6.12593e-05 0)
(0.000906908 -6.14925e-05 0)
(0.00090657 -6.17065e-05 0)
(0.000906252 -6.19023e-05 0)
(0.000905952 -6.20806e-05 0)
(0.000905662 -6.22421e-05 0)
(0.00090538 -6.23879e-05 0)
(0.000905108 -6.25196e-05 0)
(0.000904845 -6.2638e-05 0)
(0.000904582 -6.27447e-05 0)
(0.000904338 -6.28406e-05 0)
(0.000904094 -6.29266e-05 0)
(0.000903858 -6.30035e-05 0)
(0.000903633 -6.30723e-05 0)
(0.000903416 -6.31335e-05 0)
(0.000903209 -6.31875e-05 0)
(0.000903011 -6.32354e-05 0)
(0.000902822 -6.32782e-05 0)
(0.000907844 -4.44805e-08 0)
(0.000907933 -1.78059e-07 0)
(0.000908064 -2.83825e-07 0)
(0.000908202 -4.63154e-07 0)
(0.000908371 -6.84026e-07 0)
(0.000908639 -9.47423e-07 0)
(0.000908929 -1.27506e-06 0)
(0.000909234 -1.70286e-06 0)
(0.000909607 -2.18101e-06 0)
(0.000909965 -2.75979e-06 0)
(0.000910347 -3.41121e-06 0)
(0.000910797 -4.16301e-06 0)
(0.000911259 -5.01971e-06 0)
(0.000911725 -5.92708e-06 0)
(0.000912204 -6.92583e-06 0)
(0.000912686 -8.01794e-06 0)
(0.00091317 -9.22082e-06 0)
(0.000913685 -1.04889e-05 0)
(0.000914201 -1.18384e-05 0)
(0.000914701 -1.32633e-05 0)
(0.000915156 -1.47415e-05 0)
(0.00091564 -1.62821e-05 0)
(0.000916114 -1.7867e-05 0)
(0.000916542 -1.95266e-05 0)
(0.000916943 -2.12316e-05 0)
(0.000917324 -2.29685e-05 0)
(0.000917677 -2.47412e-05 0)
(0.000918019 -2.65132e-05 0)
(0.000918312 -2.82958e-05 0)
(0.00091855 -3.00784e-05 0)
(0.000918766 -3.18779e-05 0)
(0.000918942 -3.36782e-05 0)
(0.00091907 -3.54541e-05 0)
(0.000919166 -3.72303e-05 0)
(0.00091924 -3.89688e-05 0)
(0.000919274 -4.06719e-05 0)
(0.000919241 -4.23462e-05 0)
(0.000919166 -4.39776e-05 0)
(0.000919089 -4.55661e-05 0)
(0.000918961 -4.71141e-05 0)
(0.000918792 -4.86099e-05 0)
(0.000918602 -5.00503e-05 0)
(0.00091838 -5.14454e-05 0)
(0.000918118 -5.27852e-05 0)
(0.000917824 -5.40703e-05 0)
(0.000917519 -5.52957e-05 0)
(0.000917191 -5.64649e-05 0)
(0.000916842 -5.75781e-05 0)
(0.000916481 -5.86359e-05 0)
(0.000916098 -5.96398e-05 0)
(0.000915694 -6.059e-05 0)
(0.000915288 -6.14855e-05 0)
(0.000914861 -6.23291e-05 0)
(0.000914432 -6.31236e-05 0)
(0.000913991 -6.38692e-05 0)
(0.000913549 -6.45667e-05 0)
(0.000913105 -6.52188e-05 0)
(0.00091265 -6.58274e-05 0)
(0.000912203 -6.63949e-05 0)
(0.000911745 -6.69222e-05 0)
(0.000911306 -6.74112e-05 0)
(0.000910865 -6.78649e-05 0)
(0.000910433 -6.82841e-05 0)
(0.000910019 -6.86705e-05 0)
(0.000909603 -6.90255e-05 0)
(0.000909197 -6.93508e-05 0)
(0.000908809 -6.96478e-05 0)
(0.00090841 -6.99184e-05 0)
(0.000908011 -7.01645e-05 0)
(0.000907621 -7.03883e-05 0)
(0.000907231 -7.05919e-05 0)
(0.000906841 -7.0777e-05 0)
(0.00090645 -7.0945e-05 0)
(0.000906088 -7.1097e-05 0)
(0.000905725 -7.1234e-05 0)
(0.000905381 -7.13571e-05 0)
(0.000905056 -7.14671e-05 0)
(0.00090474 -7.15651e-05 0)
(0.000904433 -7.16518e-05 0)
(0.000904146 -7.17283e-05 0)
(0.000903867 -7.17952e-05 0)
(0.000903598 -7.1853e-05 0)
(0.000903348 -7.19027e-05 0)
(0.000903107 -7.19459e-05 0)
(0.000907845 -2.23853e-08 0)
(0.000907928 -1.23076e-07 0)
(0.00090807 -1.74344e-07 0)
(0.000908257 -2.75903e-07 0)
(0.000908496 -4.77524e-07 0)
(0.000908797 -7.49867e-07 0)
(0.000909158 -1.03513e-06 0)
(0.000909544 -1.43781e-06 0)
(0.000909972 -1.90996e-06 0)
(0.000910442 -2.46164e-06 0)
(0.000910935 -3.14942e-06 0)
(0.000911498 -3.94018e-06 0)
(0.000912057 -4.81128e-06 0)
(0.00091262 -5.74903e-06 0)
(0.000913224 -6.80845e-06 0)
(0.000913868 -7.9809e-06 0)
(0.000914488 -9.25745e-06 0)
(0.000915121 -1.06297e-05 0)
(0.000915765 -1.20786e-05 0)
(0.000916393 -1.35896e-05 0)
(0.000916995 -1.51912e-05 0)
(0.000917589 -1.68937e-05 0)
(0.000918202 -1.86359e-05 0)
(0.000918779 -2.04397e-05 0)
(0.0009193 -2.2306e-05 0)
(0.000919811 -2.42203e-05 0)
(0.000920275 -2.61721e-05 0)
(0.0009207 -2.8138e-05 0)
(0.000921068 -3.01179e-05 0)
(0.000921424 -3.21088e-05 0)
(0.000921742 -3.41234e-05 0)
(0.000921997 -3.61217e-05 0)
(0.000922197 -3.81192e-05 0)
(0.000922355 -4.01153e-05 0)
(0.000922445 -4.20777e-05 0)
(0.000922511 -4.39982e-05 0)
(0.000922508 -4.58794e-05 0)
(0.000922474 -4.77318e-05 0)
(0.000922389 -4.95346e-05 0)
(0.000922272 -5.12847e-05 0)
(0.000922085 -5.29884e-05 0)
(0.000921875 -5.46347e-05 0)
(0.000921624 -5.62196e-05 0)
(0.000921332 -5.77429e-05 0)
(0.000921008 -5.92111e-05 0)
(0.000920651 -6.06186e-05 0)
(0.000920263 -6.19627e-05 0)
(0.000919862 -6.32446e-05 0)
(0.000919429 -6.44637e-05 0)
(0.000918983 -6.56194e-05 0)
(0.000918506 -6.6714e-05 0)
(0.000918017 -6.77484e-05 0)
(0.000917525 -6.8725e-05 0)
(0.000917011 -6.96447e-05 0)
(0.000916485 -7.05085e-05 0)
(0.000915967 -7.13183e-05 0)
(0.000915427 -7.20756e-05 0)
(0.000914896 -7.27824e-05 0)
(0.000914362 -7.34412e-05 0)
(0.000913816 -7.4054e-05 0)
(0.000913279 -7.46225e-05 0)
(0.000912741 -7.51493e-05 0)
(0.000912201 -7.56367e-05 0)
(0.00091166 -7.60871e-05 0)
(0.000911118 -7.65025e-05 0)
(0.000910585 -7.68855e-05 0)
(0.00091006 -7.7238e-05 0)
(0.000909545 -7.75614e-05 0)
(0.000909058 -7.78569e-05 0)
(0.000908588 -7.81259e-05 0)
(0.000908147 -7.83698e-05 0)
(0.000907715 -7.85901e-05 0)
(0.000907301 -7.87887e-05 0)
(0.000906897 -7.89669e-05 0)
(0.000906501 -7.91265e-05 0)
(0.000906124 -7.92691e-05 0)
(0.000905756 -7.93958e-05 0)
(0.000905398 -7.95081e-05 0)
(0.000905049 -7.96072e-05 0)
(0.000904709 -7.96944e-05 0)
(0.000904389 -7.97705e-05 0)
(0.000904068 -7.98364e-05 0)
(0.000903766 -7.98932e-05 0)
(0.000903474 -7.99427e-05 0)
(0.000907855 1.20197e-08 0)
(0.000907949 -1.35489e-08 0)
(0.000908094 -3.56104e-08 0)
(0.00090833 -1.03051e-07 0)
(0.000908657 -2.45622e-07 0)
(0.000908982 -4.82568e-07 0)
(0.000909396 -7.54077e-07 0)
(0.000909872 -1.10359e-06 0)
(0.000910383 -1.57401e-06 0)
(0.000910966 -2.13326e-06 0)
(0.00091158 -2.81868e-06 0)
(0.000912238 -3.59942e-06 0)
(0.000912883 -4.46675e-06 0)
(0.000913579 -5.44074e-06 0)
(0.000914355 -6.56653e-06 0)
(0.000915117 -7.79021e-06 0)
(0.000915882 -9.09725e-06 0)
(0.000916661 -1.05462e-05 0)
(0.000917424 -1.2068e-05 0)
(0.00091819 -1.36799e-05 0)
(0.000918978 -1.53988e-05 0)
(0.000919739 -1.72211e-05 0)
(0.000920446 -1.91064e-05 0)
(0.000921171 -2.1036e-05 0)
(0.000921852 -2.30503e-05 0)
(0.000922494 -2.51175e-05 0)
(0.000923061 -2.72181e-05 0)
(0.000923608 -2.93659e-05 0)
(0.000924107 -3.15386e-05 0)
(0.000924574 -3.37499e-05 0)
(0.000924975 -3.59589e-05 0)
(0.000925306 -3.81528e-05 0)
(0.000925615 -4.03516e-05 0)
(0.000925845 -4.25284e-05 0)
(0.000925988 -4.47017e-05 0)
(0.000926069 -4.684e-05 0)
(0.000926128 -4.89387e-05 0)
(0.000926107 -5.0998e-05 0)
(0.000926034 -5.30077e-05 0)
(0.00092591 -5.49637e-05 0)
(0.000925743 -5.68639e-05 0)
(0.000925507 -5.87062e-05 0)
(0.000925227 -6.04829e-05 0)
(0.000924906 -6.21987e-05 0)
(0.000924551 -6.38477e-05 0)
(0.000924155 -6.54311e-05 0)
(0.000923716 -6.69444e-05 0)
(0.000923245 -6.83874e-05 0)
(0.000922751 -6.97601e-05 0)
(0.000922224 -7.10648e-05 0)
(0.000921675 -7.23003e-05 0)
(0.000921112 -7.34693e-05 0)
(0.000920528 -7.45727e-05 0)
(0.00091993 -7.56115e-05 0)
(0.000919321 -7.65886e-05 0)
(0.000918698 -7.75053e-05 0)
(0.000918074 -7.83632e-05 0)
(0.000917446 -7.91656e-05 0)
(0.000916817 -7.99142e-05 0)
(0.000916185 -8.06122e-05 0)
(0.000915562 -8.12616e-05 0)
(0.000914946 -8.1864e-05 0)
(0.000914338 -8.24223e-05 0)
(0.000913747 -8.29384e-05 0)
(0.000913165 -8.34141e-05 0)
(0.0009126 -8.38513e-05 0)
(0.000912034 -8.42518e-05 0)
(0.000911477 -8.46179e-05 0)
(0.000910918 -8.49526e-05 0)
(0.000910359 -8.52584e-05 0)
(0.000909809 -8.55373e-05 0)
(0.000909258 -8.57914e-05 0)
(0.000908717 -8.60225e-05 0)
(0.000908194 -8.62321e-05 0)
(0.00090769 -8.64218e-05 0)
(0.000907205 -8.65927e-05 0)
(0.000906739 -8.67463e-05 0)
(0.000906291 -8.68836e-05 0)
(0.000905862 -8.70058e-05 0)
(0.000905443 -8.7114e-05 0)
(0.000905042 -8.72094e-05 0)
(0.00090466 -8.72927e-05 0)
(0.000904288 -8.73653e-05 0)
(0.000903935 -8.74288e-05 0)
(0.000907827 4.01492e-08 0)
(0.000907931 8.99134e-08 0)
(0.000908115 1.02924e-07 0)
(0.000908383 4.19782e-08 0)
(0.00090876 -3.8408e-08 0)
(0.000909164 -2.04427e-07 0)
(0.000909623 -4.68977e-07 0)
(0.000910181 -8.09113e-07 0)
(0.000910792 -1.26414e-06 0)
(0.000911476 -1.81502e-06 0)
(0.000912194 -2.49003e-06 0)
(0.000912947 -3.24112e-06 0)
(0.000913725 -4.11954e-06 0)
(0.000914574 -5.16924e-06 0)
(0.000915475 -6.31403e-06 0)
(0.000916354 -7.56019e-06 0)
(0.000917284 -8.92745e-06 0)
(0.000918218 -1.0412e-05 0)
(0.00091913 -1.20109e-05 0)
(0.000920062 -1.37379e-05 0)
(0.000921017 -1.55547e-05 0)
(0.000921918 -1.74642e-05 0)
(0.000922775 -1.94641e-05 0)
(0.000923641 -2.15287e-05 0)
(0.00092449 -2.36708e-05 0)
(0.000925254 -2.58764e-05 0)
(0.000925991 -2.81449e-05 0)
(0.00092667 -3.04748e-05 0)
(0.00092731 -3.28363e-05 0)
(0.0009279 -3.52291e-05 0)
(0.000928385 -3.76234e-05 0)
(0.000928829 -4.00297e-05 0)
(0.000929203 -4.24344e-05 0)
(0.000929516 -4.481e-05 0)
(0.00092975 -4.71781e-05 0)
(0.000929886 -4.95254e-05 0)
(0.000929988 -5.18421e-05 0)
(0.000929991 -5.41151e-05 0)
(0.000929951 -5.63363e-05 0)
(0.00092983 -5.85102e-05 0)
(0.000929647 -6.06181e-05 0)
(0.000929413 -6.26642e-05 0)
(0.000929125 -6.46479e-05 0)
(0.000928775 -6.65594e-05 0)
(0.000928373 -6.83974e-05 0)
(0.000927928 -7.01613e-05 0)
(0.00092743 -7.18519e-05 0)
(0.000926899 -7.34672e-05 0)
(0.000926335 -7.50058e-05 0)
(0.000925738 -7.64692e-05 0)
(0.000925107 -7.78583e-05 0)
(0.000924454 -7.91738e-05 0)
(0.000923787 -8.04156e-05 0)
(0.000923097 -8.15864e-05 0)
(0.000922394 -8.26891e-05 0)
(0.000921678 -8.37256e-05 0)
(0.000920949 -8.46966e-05 0)
(0.000920227 -8.56053e-05 0)
(0.000919493 -8.64538e-05 0)
(0.000918765 -8.72442e-05 0)
(0.000918026 -8.79796e-05 0)
(0.000917294 -8.86621e-05 0)
(0.00091656 -8.92941e-05 0)
(0.000915814 -8.98782e-05 0)
(0.000915086 -9.04178e-05 0)
(0.000914347 -9.09162e-05 0)
(0.000913626 -9.13757e-05 0)
(0.000912933 -9.17983e-05 0)
(0.000912258 -9.21861e-05 0)
(0.00091162 -9.25407e-05 0)
(0.000911 -9.28637e-05 0)
(0.000910398 -9.31569e-05 0)
(0.000909824 -9.34222e-05 0)
(0.000909259 -9.36615e-05 0)
(0.000908713 -9.38766e-05 0)
(0.000908175 -9.40691e-05 0)
(0.000907656 -9.42413e-05 0)
(0.000907146 -9.43947e-05 0)
(0.000906656 -9.45308e-05 0)
(0.000906184 -9.46512e-05 0)
(0.000905721 -9.4757e-05 0)
(0.000905278 -9.48492e-05 0)
(0.000904844 -9.49293e-05 0)
(0.00090443 -9.49992e-05 0)
(0.000907756 5.11723e-08 0)
(0.000907879 1.38614e-07 0)
(0.000908103 1.97115e-07 0)
(0.000908402 1.68418e-07 0)
(0.000908802 1.24451e-07 0)
(0.000909276 7.08396e-09 0)
(0.000909824 -2.32703e-07 0)
(0.000910463 -5.81554e-07 0)
(0.000911157 -1.02172e-06 0)
(0.000911933 -1.55502e-06 0)
(0.000912755 -2.20992e-06 0)
(0.000913602 -2.97918e-06 0)
(0.000914559 -3.8815e-06 0)
(0.000915551 -4.95349e-06 0)
(0.00091655 -6.11624e-06 0)
(0.000917592 -7.40105e-06 0)
(0.000918659 -8.83904e-06 0)
(0.000919749 -1.03754e-05 0)
(0.000920845 -1.20384e-05 0)
(0.000921945 -1.38361e-05 0)
(0.000923039 -1.57377e-05 0)
(0.000924128 -1.774e-05 0)
(0.000925144 -1.98601e-05 0)
(0.00092617 -2.20691e-05 0)
(0.00092716 -2.43397e-05 0)
(0.000928113 -2.6695e-05 0)
(0.00092901 -2.91196e-05 0)
(0.00092985 -3.16098e-05 0)
(0.000930613 -3.41589e-05 0)
(0.000931318 -3.6716e-05 0)
(0.000931935 -3.93174e-05 0)
(0.000932493 -4.19359e-05 0)
(0.000932959 -4.45418e-05 0)
(0.000933359 -4.71466e-05 0)
(0.000933676 -4.97237e-05 0)
(0.000933904 -5.22912e-05 0)
(0.000934051 -5.48221e-05 0)
(0.000934108 -5.73171e-05 0)
(0.000934082 -5.97671e-05 0)
(0.000933994 -6.21601e-05 0)
(0.000933816 -6.44954e-05 0)
(0.000933584 -6.67637e-05 0)
(0.00093326 -6.89625e-05 0)
(0.000932884 -7.10854e-05 0)
(0.000932444 -7.31284e-05 0)
(0.00093196 -7.50913e-05 0)
(0.000931414 -7.69728e-05 0)
(0.000930815 -7.87734e-05 0)
(0.000930172 -8.04931e-05 0)
(0.000929505 -8.21266e-05 0)
(0.000928794 -8.36776e-05 0)
(0.00092805 -8.51453e-05 0)
(0.000927282 -8.65319e-05 0)
(0.000926501 -8.78393e-05 0)
(0.000925696 -8.90692e-05 0)
(0.000924877 -9.02239e-05 0)
(0.000924045 -9.1307e-05 0)
(0.00092321 -9.23203e-05 0)
(0.000922371 -9.32668e-05 0)
(0.000921529 -9.41485e-05 0)
(0.000920694 -9.49691e-05 0)
(0.000919866 -9.57315e-05 0)
(0.000919045 -9.64377e-05 0)
(0.000918251 -9.70906e-05 0)
(0.000917464 -9.7693e-05 0)
(0.000916704 -9.82467e-05 0)
(0.000915942 -9.87544e-05 0)
(0.000915197 -9.92191e-05 0)
(0.000914441 -9.9643e-05 0)
(0.000913694 -0.000100029 0)
(0.000912946 -0.000100381 0)
(0.000912206 -0.000100702 0)
(0.000911495 -0.000100993 0)
(0.000910793 -0.000101257 0)
(0.000910109 -0.000101495 0)
(0.000909453 -0.00010171 0)
(0.000908816 -0.000101903 0)
(0.000908208 -0.000102075 0)
(0.000907618 -0.000102227 0)
(0.000907056 -0.000102362 0)
(0.000906504 -0.00010248 0)
(0.000905981 -0.000102583 0)
(0.000905476 -0.000102672 0)
(0.000904981 -0.000102749 0)
(0.000907674 5.7258e-08 0)
(0.000907797 1.52096e-07 0)
(0.00090806 2.53475e-07 0)
(0.000908389 2.7041e-07 0)
(0.000908831 2.45438e-07 0)
(0.000909366 1.34284e-07 0)
(0.000910003 -9.6337e-08 0)
(0.000910723 -4.19061e-07 0)
(0.0009115 -8.42764e-07 0)
(0.000912358 -1.38612e-06 0)
(0.000913301 -2.0172e-06 0)