/*--------------------------------*- C++ -*----------------------------------*\
  =========                 |
  \\      /  F ield         | OpenFOAM: The Open Source CFD Toolbox
   \\    /   O peration     | Website:  https://openfoam.org
    \\  /    A nd           | Version:  10
     \\/     M anipulation  |
\*---------------------------------------------------------------------------*/
FoamFile
{
    format      ascii;
    class       volVectorField;
    location    "0";
    object      U_d5;
}
// * * * * * * * * * * * * * * * * * * * * * * * * * * * * * * * * * * * * * //

dimensions      [0 1 -1 0 0 0 0];

internalField   nonuniform List<vector> 
84253
(
(0.000992889 -3.36556e-08 0)
(0.00099288 -1.46439e-07 0)
(0.00099288 -2.57791e-07 0)
(0.000992889 -3.58634e-07 0)
(0.000992879 -4.54368e-07 0)
(0.000992879 -5.50715e-07 0)
(0.000992889 -6.38987e-07 0)
(0.000992889 -7.28456e-07 0)
(0.000992879 -8.19205e-07 0)
(0.000992879 -8.89147e-07 0)
(0.000992879 -9.65652e-07 0)
(0.000992879 -1.03879e-06 0)
(0.000992879 -1.1003e-06 0)
(0.000992878 -1.16347e-06 0)
(0.000992878 -1.22137e-06 0)
(0.000992878 -1.27495e-06 0)
(0.000992878 -1.31794e-06 0)
(0.000992878 -1.36629e-06 0)
(0.000992868 -1.40815e-06 0)
(0.000992868 -1.44156e-06 0)
(0.000992867 -1.47571e-06 0)
(0.000992867 -1.50096e-06 0)
(0.000992867 -1.5204e-06 0)
(0.000992857 -1.52878e-06 0)
(0.000992866 -1.53782e-06 0)
(0.000992856 -1.54176e-06 0)
(0.000992856 -1.54088e-06 0)
(0.000992856 -1.53542e-06 0)
(0.000992845 -1.52606e-06 0)
(0.000992855 -1.51807e-06 0)
(0.000992855 -1.50329e-06 0)
(0.000992835 -1.48417e-06 0)
(0.000992834 -1.45939e-06 0)
(0.000992834 -1.42977e-06 0)
(0.000992823 -1.3987e-06 0)
(0.000992823 -1.36714e-06 0)
(0.000992822 -1.33073e-06 0)
(0.000992812 -1.29005e-06 0)
(0.000992812 -1.25021e-06 0)
(0.000992801 -1.21045e-06 0)
(0.00099279 -1.16724e-06 0)
(0.00099279 -1.12305e-06 0)
(0.000992779 -1.07734e-06 0)
(0.000992779 -1.0289e-06 0)
(0.000992768 -9.82601e-07 0)
(0.000992757 -9.33333e-07 0)
(0.000992746 -8.84291e-07 0)
(0.000992735 -8.33809e-07 0)
(0.000992725 -7.8097e-07 0)
(0.000992704 -7.3294e-07 0)
(0.000992692 -6.78009e-07 0)
(0.000992681 -6.32197e-07 0)
(0.00099266 -5.82702e-07 0)
(0.000992639 -5.33796e-07 0)
(0.000992617 -4.87991e-07 0)
(0.000992596 -4.3998e-07 0)
(0.000992574 -3.95287e-07 0)
(0.000992552 -3.49754e-07 0)
(0.00099252 -3.05772e-07 0)
(0.000992498 -2.60479e-07 0)
(0.000992466 -2.18328e-07 0)
(0.000992434 -1.74318e-07 0)
(0.000992391 -1.27514e-07 0)
(0.000992349 -8.3882e-08 0)
(0.000992307 -3.84344e-08 0)
(0.000992264 9.64234e-09 0)
(0.000992221 5.66631e-08 0)
(0.000992179 1.04099e-07 0)
(0.000992136 1.52183e-07 0)
(0.000992103 2.03198e-07 0)
(0.00099206 2.53161e-07 0)
(0.000992027 3.03754e-07 0)
(0.000991994 3.5614e-07 0)
(0.000991971 4.07917e-07 0)
(0.000991938 4.60121e-07 0)
(0.000991905 5.12002e-07 0)
(0.000991882 5.6273e-07 0)
(0.000991859 6.12427e-07 0)
(0.000991827 6.609e-07 0)
(0.000991805 7.07876e-07 0)
(0.000991782 7.53164e-07 0)
(0.00099176 7.96626e-07 0)
(0.000991749 8.38045e-07 0)
(0.000991727 8.77312e-07 0)
(0.000987918 -1.10586e-07 0)
(0.000987915 -4.75838e-07 0)
(0.000987913 -8.18846e-07 0)
(0.0009879 -1.12842e-06 0)
(0.000987917 -1.43983e-06 0)
(0.000987917 -1.74179e-06 0)
(0.000987911 -2.02265e-06 0)
(0.000987929 -2.28481e-06 0)
(0.000987921 -2.5341e-06 0)
(0.000987923 -2.79723e-06 0)
(0.000987931 -3.03331e-06 0)
(0.000987927 -3.2612e-06 0)
(0.000987921 -3.4747e-06 0)
(0.000987936 -3.6686e-06 0)
(0.000987937 -3.85185e-06 0)
(0.00098793 -4.02636e-06 0)
(0.000987925 -4.1817e-06 0)
(0.000987948 -4.30944e-06 0)
(0.000987939 -4.4322e-06 0)
(0.00098795 -4.54831e-06 0)
(0.000987946 -4.64996e-06 0)
(0.00098793 -4.72327e-06 0)
(0.000987927 -4.78772e-06 0)
(0.000987923 -4.84838e-06 0)
(0.000987927 -4.88093e-06 0)
(0.000987929 -4.89695e-06 0)
(0.000987934 -4.90705e-06 0)
(0.00098793 -4.90129e-06 0)
(0.000987944 -4.88396e-06 0)
(0.00098794 -4.84098e-06 0)
(0.000987941 -4.78529e-06 0)
(0.000987949 -4.72986e-06 0)
(0.000987943 -4.65816e-06 0)
(0.000987956 -4.58173e-06 0)
(0.000987979 -4.49645e-06 0)
(0.000987992 -4.40048e-06 0)
(0.000987994 -4.29264e-06 0)
(0.000988003 -4.17451e-06 0)
(0.000988023 -4.05216e-06 0)
(0.000988039 -3.92237e-06 0)
(0.000988055 -3.79288e-06 0)
(0.000988073 -3.65449e-06 0)
(0.000988091 -3.51352e-06 0)
(0.000988112 -3.36062e-06 0)
(0.000988138 -3.19157e-06 0)
(0.000988167 -3.03262e-06 0)
(0.000988191 -2.8742e-06 0)
(0.000988222 -2.71708e-06 0)
(0.000988256 -2.55698e-06 0)
(0.000988297 -2.39222e-06 0)
(0.000988338 -2.24664e-06 0)
(0.00098838 -2.05491e-06 0)
(0.000988428 -1.87343e-06 0)
(0.000988476 -1.7045e-06 0)
(0.000988523 -1.5262e-06 0)
(0.000988577 -1.35316e-06 0)
(0.000988634 -1.17217e-06 0)
(0.000988691 -9.94806e-07 0)
(0.000988746 -8.13517e-07 0)
(0.000988803 -6.35908e-07 0)
(0.000988862 -4.55236e-07 0)
(0.000988926 -2.75044e-07 0)
(0.000988987 -9.37006e-08 0)
(0.000989051 8.73316e-08 0)
(0.000989114 2.67709e-07 0)
(0.000989177 4.47551e-07 0)
(0.000989238 6.26521e-07 0)
(0.000989293 8.04452e-07 0)
(0.000989343 9.80384e-07 0)
(0.000989388 1.15659e-06 0)
(0.000989428 1.32901e-06 0)
(0.000989467 1.49872e-06 0)
(0.000989502 1.66736e-06 0)
(0.000989532 1.83294e-06 0)
(0.000989561 1.99642e-06 0)
(0.000989586 2.15757e-06 0)
(0.000989612 2.31626e-06 0)
(0.000989636 2.47263e-06 0)
(0.00098966 2.62641e-06 0)
(0.000989682 2.77754e-06 0)
(0.000989703 2.92587e-06 0)
(0.000989724 3.07127e-06 0)
(0.000989744 3.21369e-06 0)
(0.000989764 3.35185e-06 0)
(0.000988587 -2.18507e-07 0)
(0.000988593 -8.14201e-07 0)
(0.000988591 -1.31621e-06 0)
(0.000988586 -1.8446e-06 0)
(0.000988587 -2.3344e-06 0)
(0.000988587 -2.79587e-06 0)
(0.000988576 -3.25783e-06 0)
(0.000988564 -3.70226e-06 0)
(0.000988584 -4.11194e-06 0)
(0.000988589 -4.52969e-06 0)
(0.000988574 -4.90222e-06 0)
(0.000988574 -5.24184e-06 0)
(0.000988564 -5.59486e-06 0)
(0.000988543 -5.9083e-06 0)
(0.000988541 -6.19477e-06 0)
(0.00098853 -6.45351e-06 0)
(0.000988504 -6.71268e-06 0)
(0.000988471 -6.93144e-06 0)
(0.000988477 -7.11714e-06 0)
(0.000988461 -7.27978e-06 0)
(0.000988426 -7.39873e-06 0)
(0.0009884 -7.51331e-06 0)
(0.000988395 -7.5978e-06 0)
(0.000988369 -7.66388e-06 0)
(0.000988317 -7.70373e-06 0)
(0.000988298 -7.7131e-06 0)
(0.000988275 -7.69591e-06 0)
(0.00098825 -7.66219e-06 0)
(0.000988201 -7.60187e-06 0)
(0.000988155 -7.51616e-06 0)
(0.00098815 -7.41284e-06 0)
(0.000988127 -7.28444e-06 0)
(0.000988105 -7.14762e-06 0)
(0.000988088 -6.98432e-06 0)
(0.000988061 -6.79838e-06 0)
(0.000988036 -6.5971e-06 0)
(0.000988014 -6.38554e-06 0)
(0.000987999 -6.16208e-06 0)
(0.000987981 -5.92452e-06 0)
(0.000987977 -5.6745e-06 0)
(0.000987973 -5.41387e-06 0)
(0.000987959 -5.14539e-06 0)
(0.000987959 -4.86874e-06 0)
(0.000987953 -4.58606e-06 0)
(0.00098795 -4.29021e-06 0)
(0.000987946 -3.99454e-06 0)
(0.000987948 -3.69317e-06 0)
(0.000987951 -3.39311e-06 0)
(0.000987956 -3.09119e-06 0)
(0.000987962 -2.77546e-06 0)
(0.000987976 -2.4584e-06 0)
(0.000987996 -2.16775e-06 0)
(0.000988011 -1.86084e-06 0)
(0.000988034 -1.54796e-06 0)
(0.000988047 -1.24374e-06 0)
(0.000988067 -9.36421e-07 0)
(0.000988083 -6.36483e-07 0)
(0.000988102 -3.37165e-07 0)
(0.000988122 -4.03737e-08 0)
(0.000988138 2.58302e-07 0)
(0.000988151 5.50109e-07 0)
(0.000988162 8.41228e-07 0)
(0.000988171 1.12755e-06 0)
(0.000988176 1.41033e-06 0)
(0.000988181 1.69052e-06 0)
(0.000988181 1.96665e-06 0)
(0.00098818 2.24049e-06 0)
(0.000988176 2.51143e-06 0)
(0.000988175 2.77904e-06 0)
(0.00098818 3.04429e-06 0)
(0.000988188 3.30601e-06 0)
(0.000988197 3.56442e-06 0)
(0.000988206 3.81952e-06 0)
(0.000988214 4.0702e-06 0)
(0.000988222 4.31646e-06 0)
(0.00098823 4.55771e-06 0)
(0.000988238 4.7934e-06 0)
(0.000988244 5.02314e-06 0)
(0.000988252 5.24651e-06 0)
(0.000988257 5.46309e-06 0)
(0.000988262 5.67256e-06 0)
(0.000988268 5.87472e-06 0)
(0.000988274 6.06921e-06 0)
(0.00098828 6.256e-06 0)
(0.000988906 -3.26379e-07 0)
(0.000988904 -1.15282e-06 0)
(0.000988914 -1.82431e-06 0)
(0.0009889 -2.5445e-06 0)
(0.000988889 -3.22183e-06 0)
(0.000988886 -3.88207e-06 0)
(0.000988889 -4.51515e-06 0)
(0.000988878 -5.13627e-06 0)
(0.00098887 -5.73479e-06 0)
(0.000988858 -6.27189e-06 0)
(0.000988807 -6.79713e-06 0)
(0.000988806 -7.29415e-06 0)
(0.000988794 -7.76001e-06 0)
(0.000988748 -8.20107e-06 0)
(0.00098871 -8.59872e-06 0)
(0.000988687 -8.96205e-06 0)
(0.000988655 -9.29229e-06 0)
(0.000988597 -9.60923e-06 0)
(0.000988536 -9.88735e-06 0)
(0.000988467 -1.01025e-05 0)
(0.000988409 -1.02829e-05 0)
(0.000988356 -1.04434e-05 0)
(0.000988285 -1.05578e-05 0)
(0.000988224 -1.06171e-05 0)
(0.000988144 -1.0661e-05 0)
(0.000988061 -1.06741e-05 0)
(0.000987996 -1.06431e-05 0)
(0.000987919 -1.0574e-05 0)
(0.000987838 -1.0466e-05 0)
(0.000987756 -1.03494e-05 0)
(0.000987665 -1.01992e-05 0)
(0.000987602 -1.0003e-05 0)
(0.000987515 -9.78412e-06 0)
(0.000987418 -9.53868e-06 0)
(0.000987342 -9.27295e-06 0)
(0.00098728 -8.98162e-06 0)
(0.000987207 -8.66523e-06 0)
(0.000987135 -8.33115e-06 0)
(0.000987067 -7.97841e-06 0)
(0.000986998 -7.61273e-06 0)
(0.000986939 -7.2241e-06 0)
(0.000986884 -6.82543e-06 0)
(0.000986827 -6.41644e-06 0)
(0.000986767 -5.99829e-06 0)
(0.000986713 -5.57266e-06 0)
(0.000986669 -5.14262e-06 0)
(0.000986634 -4.70641e-06 0)
(0.000986596 -4.26711e-06 0)
(0.000986558 -3.82087e-06 0)
(0.000986525 -3.37831e-06 0)
(0.000986494 -2.92388e-06 0)
(0.000986463 -2.47743e-06 0)
(0.000986435 -2.02832e-06 0)
(0.000986413 -1.58799e-06 0)
(0.000986396 -1.14997e-06 0)
(0.000986381 -7.03058e-07 0)
(0.000986369 -2.76114e-07 0)
(0.000986355 1.63858e-07 0)
(0.000986345 5.95202e-07 0)
(0.000986335 1.01054e-06 0)
(0.000986332 1.42883e-06 0)
(0.00098633 1.84152e-06 0)
(0.00098633 2.25212e-06 0)
(0.000986332 2.65797e-06 0)
(0.000986333 3.05657e-06 0)
(0.000986335 3.45209e-06 0)
(0.000986335 3.83988e-06 0)
(0.000986331 4.22005e-06 0)
(0.000986321 4.59309e-06 0)
(0.000986308 4.95728e-06 0)
(0.000986292 5.31339e-06 0)
(0.000986272 5.66125e-06 0)
(0.000986251 5.99999e-06 0)
(0.000986228 6.32964e-06 0)
(0.000986203 6.65006e-06 0)
(0.000986181 6.9613e-06 0)
(0.000986162 7.2634e-06 0)
(0.000986143 7.55646e-06 0)
(0.000986127 7.84071e-06 0)
(0.000986116 8.11622e-06 0)
(0.000986107 8.38288e-06 0)
(0.000986102 8.64109e-06 0)
(0.000986101 8.89068e-06 0)
(0.000986102 9.13129e-06 0)
(0.000989744 -4.19359e-07 0)
(0.000989721 -1.49009e-06 0)
(0.000989722 -2.37971e-06 0)
(0.000989729 -3.3245e-06 0)
(0.000989721 -4.21474e-06 0)
(0.000989702 -5.10039e-06 0)
(0.000989694 -5.93071e-06 0)
(0.000989675 -6.71108e-06 0)
(0.00098965 -7.48763e-06 0)
(0.000989608 -8.19171e-06 0)
(0.000989585 -8.9063e-06 0)
(0.000989549 -9.60092e-06 0)
(0.000989503 -1.02021e-05 0)
(0.000989439 -1.07873e-05 0)
(0.000989361 -1.13397e-05 0)
(0.000989307 -1.18416e-05 0)
(0.000989234 -1.22937e-05 0)
(0.000989167 -1.27016e-05 0)
(0.00098905 -1.30555e-05 0)
(0.00098893 -1.33738e-05 0)
(0.000988836 -1.36643e-05 0)
(0.000988729 -1.38894e-05 0)
(0.000988588 -1.40638e-05 0)
(0.000988459 -1.41874e-05 0)
(0.000988348 -1.42587e-05 0)
(0.000988206 -1.4295e-05 0)
(0.000988047 -1.42864e-05 0)
(0.000987891 -1.42249e-05 0)
(0.000987743 -1.41146e-05 0)
(0.000987618 -1.3957e-05 0)
(0.000987444 -1.37678e-05 0)
(0.000987282 -1.3539e-05 0)
(0.000987139 -1.32623e-05 0)
(0.000987006 -1.29674e-05 0)
(0.000986848 -1.26408e-05 0)
(0.000986683 -1.22724e-05 0)
(0.000986532 -1.18703e-05 0)
(0.000986395 -1.14516e-05 0)
(0.000986256 -1.10064e-05 0)
(0.000986119 -1.05348e-05 0)
(0.000985978 -1.00489e-05 0)
(0.000985856 -9.54167e-06 0)
(0.000985738 -9.01726e-06 0)
(0.000985622 -8.48188e-06 0)
(0.000985514 -7.93712e-06 0)
(0.000985412 -7.38315e-06 0)
(0.000985315 -6.81922e-06 0)
(0.000985217 -6.24945e-06 0)
(0.000985122 -5.67225e-06 0)
(0.000985034 -5.09617e-06 0)
(0.000984955 -4.51217e-06 0)
(0.000984873 -3.92936e-06 0)
(0.000984801 -3.34522e-06 0)
(0.000984725 -2.76371e-06 0)
(0.000984661 -2.18754e-06 0)
(0.000984594 -1.61123e-06 0)
(0.000984532 -1.05559e-06 0)
(0.000984474 -4.94988e-07 0)
(0.000984418 5.83626e-08 0)
(0.000984362 5.99248e-07 0)
(0.000984308 1.13817e-06 0)
(0.000984247 1.66812e-06 0)
(0.000984187 2.18158e-06 0)
(0.000984123 2.68505e-06 0)
(0.000984056 3.18327e-06 0)
(0.00098399 3.66563e-06 0)
(0.000983923 4.13761e-06 0)
(0.000983858 4.60047e-06 0)
(0.000983798 5.05024e-06 0)
(0.000983741 5.49086e-06 0)
(0.000983689 5.92103e-06 0)
(0.000983641 6.34019e-06 0)
(0.000983598 6.7498e-06 0)
(0.000983557 7.14934e-06 0)
(0.000983519 7.53859e-06 0)
(0.000983485 7.9175e-06 0)
(0.000983452 8.28628e-06 0)
(0.000983421 8.64475e-06 0)
(0.000983394 8.9929e-06 0)
(0.00098337 9.33065e-06 0)
(0.00098335 9.65808e-06 0)
(0.000983335 9.97518e-06 0)
(0.000983323 1.02821e-05 0)
(0.000983314 1.05781e-05 0)
(0.000990901 -5.26039e-07 0)
(0.000990902 -1.8629e-06 0)
(0.000990917 -3.02782e-06 0)
(0.00099091 -4.22452e-06 0)
(0.0009909 -5.32337e-06 0)
(0.000990884 -6.42732e-06 0)
(0.000990836 -7.48953e-06 0)
(0.000990814 -8.50022e-06 0)
(0.000990774 -9.47937e-06 0)
(0.000990727 -1.04281e-05 0)
(0.000990715 -1.13312e-05 0)
(0.000990625 -1.21883e-05 0)
(0.000990532 -1.29921e-05 0)
(0.000990476 -1.3766e-05 0)
(0.000990371 -1.44957e-05 0)
(0.000990258 -1.51684e-05 0)
(0.000990148 -1.57782e-05 0)
(0.000989991 -1.63231e-05 0)
(0.000989841 -1.68145e-05 0)
(0.000989706 -1.72648e-05 0)
(0.000989546 -1.7662e-05 0)
(0.00098935 -1.7991e-05 0)
(0.000989146 -1.82689e-05 0)
(0.000988945 -1.84942e-05 0)
(0.000988735 -1.86418e-05 0)
(0.000988534 -1.87251e-05 0)
(0.000988305 -1.87561e-05 0)
(0.000988059 -1.87417e-05 0)
(0.000987808 -1.86818e-05 0)
(0.000987573 -1.85606e-05 0)
(0.000987334 -1.83744e-05 0)
(0.000987075 -1.81464e-05 0)
(0.000986834 -1.78728e-05 0)
(0.000986598 -1.75363e-05 0)
(0.000986339 -1.7156e-05 0)
(0.000986076 -1.67476e-05 0)
(0.000985845 -1.63046e-05 0)
(0.000985622 -1.58248e-05 0)
(0.00098537 -1.53168e-05 0)
(0.00098514 -1.47756e-05 0)
(0.00098492 -1.42148e-05 0)
(0.000984693 -1.36306e-05 0)
(0.000984481 -1.3021e-05 0)
(0.000984278 -1.23927e-05 0)
(0.000984076 -1.17437e-05 0)
(0.00098388 -1.10834e-05 0)
(0.000983693 -1.04105e-05 0)
(0.00098351 -9.73041e-06 0)
(0.000983335 -9.04317e-06 0)
(0.000983164 -8.35226e-06 0)
(0.000983001 -7.65689e-06 0)
(0.000982846 -6.96159e-06 0)
(0.000982699 -6.26762e-06 0)
(0.000982554 -5.57408e-06 0)
(0.000982415 -4.88641e-06 0)
(0.000982277 -4.20131e-06 0)
(0.000982142 -3.51941e-06 0)
(0.000982018 -2.84663e-06 0)
(0.000981899 -2.1843e-06 0)
(0.000981785 -1.52788e-06 0)
(0.000981677 -8.92102e-07 0)
(0.000981572 -2.53677e-07 0)
(0.000981476 3.71145e-07 0)
(0.000981391 9.7661e-07 0)
(0.000981313 1.58142e-06 0)
(0.000981238 2.17514e-06 0)
(0.000981166 2.75502e-06 0)
(0.000981094 3.32217e-06 0)
(0.000981022 3.87996e-06 0)
(0.000980947 4.42032e-06 0)
(0.00098087 4.9467e-06 0)
(0.000980793 5.46324e-06 0)
(0.000980719 5.96651e-06 0)
(0.000980648 6.45595e-06 0)
(0.000980581 6.93178e-06 0)
(0.00098052 7.39385e-06 0)
(0.000980464 7.84185e-06 0)
(0.000980415 8.27601e-06 0)
(0.000980372 8.69626e-06 0)
(0.000980335 9.10269e-06 0)
(0.000980305 9.49532e-06 0)
(0.00098028 9.8746e-06 0)
(0.000980261 1.02406e-05 0)
(0.000980246 1.05931e-05 0)
(0.000991571 -6.59264e-07 0)
(0.000991583 -2.28935e-06 0)
(0.000991597 -3.69193e-06 0)
(0.000991563 -5.15522e-06 0)
(0.00099155 -6.5011e-06 0)
(0.000991549 -7.81904e-06 0)
(0.000991499 -9.1289e-06 0)
(0.000991461 -1.03994e-05 0)
(0.000991425 -1.16072e-05 0)
(0.00099136 -1.28178e-05 0)
(0.000991297 -1.39168e-05 0)
(0.000991202 -1.49664e-05 0)
(0.000991114 -1.60033e-05 0)
(0.000991016 -1.69806e-05 0)
(0.000990871 -1.78911e-05 0)
(0.000990721 -1.87523e-05 0)
(0.000990542 -1.9537e-05 0)
(0.00099037 -2.02614e-05 0)
(0.000990172 -2.09485e-05 0)
(0.000989962 -2.15636e-05 0)
(0.000989733 -2.20895e-05 0)
(0.00098949 -2.25416e-05 0)
(0.000989228 -2.2949e-05 0)
(0.000988936 -2.32888e-05 0)
(0.000988628 -2.35555e-05 0)
(0.000988324 -2.37425e-05 0)
(0.000988013 -2.38501e-05 0)
(0.000987711 -2.39007e-05 0)
(0.000987384 -2.39002e-05 0)
(0.000987026 -2.38367e-05 0)
(0.000986661 -2.3694e-05 0)
(0.000986313 -2.34948e-05 0)
(0.000985951 -2.32361e-05 0)
(0.000985575 -2.29063e-05 0)
(0.000985245 -2.25305e-05 0)
(0.000984895 -2.21163e-05 0)
(0.000984547 -2.16588e-05 0)
(0.000984205 -2.11419e-05 0)
(0.000983871 -2.05881e-05 0)
(0.000983539 -2.00037e-05 0)
(0.000983222 -1.93776e-05 0)
(0.000982897 -1.87246e-05 0)
(0.000982585 -1.8046e-05 0)
(0.000982271 -1.73419e-05 0)
(0.000981981 -1.6613e-05 0)
(0.000981704 -1.58667e-05 0)
(0.000981435 -1.51039e-05 0)
(0.000981176 -1.43294e-05 0)
(0.000980921 -1.35451e-05 0)
(0.000980678 -1.2754e-05 0)
(0.000980444 -1.1958e-05 0)
(0.000980223 -1.11589e-05 0)
(0.00098001 -1.0358e-05 0)
(0.000979808 -9.55677e-06 0)
(0.000979616 -8.75825e-06 0)
(0.000979431 -7.96312e-06 0)
(0.000979253 -7.17374e-06 0)
(0.000979082 -6.39119e-06 0)
(0.000978919 -5.6166e-06 0)
(0.000978764 -4.84917e-06 0)
(0.000978613 -4.08965e-06 0)
(0.000978466 -3.34034e-06 0)
(0.000978321 -2.60894e-06 0)
(0.00097818 -1.88775e-06 0)
(0.000978041 -1.18094e-06 0)
(0.000977904 -4.91677e-07 0)
(0.000977772 1.85451e-07 0)
(0.00097765 8.4944e-07 0)
(0.000977537 1.49782e-06 0)
(0.000977434 2.12439e-06 0)
(0.000977341 2.73598e-06 0)
(0.000977257 3.33393e-06 0)
(0.000977179 3.91661e-06 0)
(0.000977108 4.48425e-06 0)
(0.000977042 5.03506e-06 0)
(0.000976981 5.56885e-06 0)
(0.000976924 6.08748e-06 0)
(0.000976871 6.59118e-06 0)
(0.000976823 7.07918e-06 0)
(0.000976782 7.55153e-06 0)
(0.000976745 8.00853e-06 0)
(0.000976715 8.4504e-06 0)
(0.00097669 8.87713e-06 0)
(0.000976669 9.28872e-06 0)
(0.000992862 -7.92244e-07 0)
(0.000992875 -2.71635e-06 0)
(0.000992908 -4.30881e-06 0)
(0.000992867 -6.02666e-06 0)
(0.000992825 -7.63367e-06 0)
(0.000992826 -9.20381e-06 0)
(0.000992799 -1.07286e-05 0)
(0.000992744 -1.22355e-05 0)
(0.000992711 -1.36628e-05 0)
(0.00099263 -1.50612e-05 0)
(0.000992521 -1.63951e-05 0)
(0.000992433 -1.76909e-05 0)
(0.000992327 -1.89488e-05 0)
(0.000992182 -2.01119e-05 0)
(0.000992019 -2.12077e-05 0)
(0.000991818 -2.22496e-05 0)
(0.000991608 -2.32522e-05 0)
(0.000991383 -2.41725e-05 0)
(0.00099115 -2.50276e-05 0)
(0.000990868 -2.58078e-05 0)
(0.000990538 -2.65004e-05 0)
(0.000990232 -2.71112e-05 0)
(0.000989913 -2.76346e-05 0)
(0.000989541 -2.81044e-05 0)
(0.000989143 -2.84978e-05 0)
(0.000988728 -2.88047e-05 0)
(0.000988312 -2.90451e-05 0)
(0.000987903 -2.91837e-05 0)
(0.000987476 -2.924e-05 0)
(0.000987002 -2.92096e-05 0)
(0.000986536 -2.91241e-05 0)
(0.000986069 -2.8982e-05 0)
(0.000985573 -2.87545e-05 0)
(0.000985096 -2.84805e-05 0)
(0.000984642 -2.81297e-05 0)
(0.000984181 -2.7712e-05 0)
(0.0009837 -2.72432e-05 0)
(0.000983224 -2.67162e-05 0)
(0.000982774 -2.61379e-05 0)
(0.000982318 -2.55189e-05 0)
(0.000981869 -2.48516e-05 0)
(0.000981442 -2.41469e-05 0)
(0.000981017 -2.34115e-05 0)
(0.000980597 -2.26438e-05 0)
(0.00098019 -2.18515e-05 0)
(0.000979799 -2.10306e-05 0)
(0.000979422 -2.01886e-05 0)
(0.000979061 -1.93284e-05 0)
(0.000978712 -1.84555e-05 0)
(0.000978376 -1.7572e-05 0)
(0.000978051 -1.66807e-05 0)
(0.000977739 -1.5783e-05 0)
(0.000977438 -1.4882e-05 0)
(0.000977153 -1.39798e-05 0)
(0.000976878 -1.30787e-05 0)
(0.000976614 -1.21809e-05 0)
(0.00097636 -1.12885e-05 0)
(0.000976116 -1.04036e-05 0)
(0.000975883 -9.52771e-06 0)
(0.000975661 -8.66209e-06 0)
(0.00097545 -7.80824e-06 0)
(0.000975249 -6.96726e-06 0)
(0.000975061 -6.14065e-06 0)
(0.000974887 -5.32815e-06 0)
(0.000974725 -4.52765e-06 0)
(0.000974573 -3.74391e-06 0)
(0.000974428 -2.9773e-06 0)
(0.000974286 -2.22786e-06 0)
(0.000974144 -1.49237e-06 0)
(0.000974003 -7.76416e-07 0)
(0.000973863 -8.16748e-08 0)
(0.000973725 5.97632e-07 0)
(0.000973593 1.25888e-06 0)
(0.000973467 1.90161e-06 0)
(0.000973352 2.52481e-06 0)
(0.000973245 3.12952e-06 0)
(0.000973151 3.71654e-06 0)
(0.000973065 4.28528e-06 0)
(0.000972991 4.83607e-06 0)
(0.000972925 5.36922e-06 0)
(0.000972869 5.88473e-06 0)
(0.000972821 6.38319e-06 0)
(0.000972781 6.86473e-06 0)
(0.000972748 7.3294e-06 0)
(0.000994342 -8.97986e-07 0)
(0.000994316 -3.08219e-06 0)
(0.000994341 -4.87993e-06 0)
(0.000994319 -6.78746e-06 0)
(0.00099429 -8.62503e-06 0)
(0.000994273 -1.04528e-05 0)
(0.000994258 -1.21521e-05 0)
(0.000994196 -1.38605e-05 0)
(0.000994126 -1.55005e-05 0)
(0.000994049 -1.70683e-05 0)
(0.000993953 -1.86239e-05 0)
(0.000993859 -2.01327e-05 0)
(0.000993708 -2.15695e-05 0)
(0.000993509 -2.29056e-05 0)
(0.000993311 -2.42007e-05 0)
(0.000993116 -2.54438e-05 0)
(0.000992861 -2.66226e-05 0)
(0.00099258 -2.77344e-05 0)
(0.000992279 -2.87512e-05 0)
(0.00099192 -2.9666e-05 0)
(0.000991544 -3.05147e-05 0)
(0.000991131 -3.13095e-05 0)
(0.000990727 -3.19853e-05 0)
(0.000990299 -3.25717e-05 0)
(0.0009898 -3.30845e-05 0)
(0.000989309 -3.35146e-05 0)
(0.000988773 -3.38596e-05 0)
(0.00098822 -3.40993e-05 0)
(0.000987644 -3.42405e-05 0)
(0.000987066 -3.42938e-05 0)
(0.000986505 -3.42846e-05 0)
(0.000985911 -3.4182e-05 0)
(0.000985301 -3.40113e-05 0)
(0.000984688 -3.37797e-05 0)
(0.000984055 -3.34605e-05 0)
(0.000983456 -3.30584e-05 0)
(0.000982833 -3.25851e-05 0)
(0.000982227 -3.20613e-05 0)
(0.000981632 -3.1474e-05 0)
(0.000981046 -3.08286e-05 0)
(0.000980454 -3.01396e-05 0)
(0.000979894 -2.94013e-05 0)
(0.00097933 -2.86173e-05 0)
(0.000978779 -2.7795e-05 0)
(0.000978242 -2.69437e-05 0)
(0.00097772 -2.6064e-05 0)
(0.000977221 -2.516e-05 0)
(0.000976741 -2.42336e-05 0)
(0.000976275 -2.32883e-05 0)
(0.000975825 -2.23271e-05 0)
(0.000975392 -2.13549e-05 0)
(0.000974973 -2.03745e-05 0)
(0.000974571 -1.93896e-05 0)
(0.000974185 -1.84026e-05 0)
(0.000973816 -1.74154e-05 0)
(0.000973463 -1.64309e-05 0)
(0.000973124 -1.54514e-05 0)
(0.000972801 -1.44786e-05 0)
(0.000972491 -1.35147e-05 0)
(0.000972196 -1.25608e-05 0)
(0.000971913 -1.16186e-05 0)
(0.000971639 -1.06897e-05 0)
(0.000971375 -9.77474e-06 0)
(0.000971116 -8.87524e-06 0)
(0.000970864 -7.99202e-06 0)
(0.000970622 -7.12664e-06 0)
(0.000970391 -6.27963e-06 0)
(0.000970176 -5.45253e-06 0)
(0.000969979 -4.63889e-06 0)
(0.0009698 -3.849e-06 0)
(0.000969639 -3.08373e-06 0)
(0.000969494 -2.33254e-06 0)
(0.000969362 -1.60134e-06 0)
(0.00096924 -8.89532e-07 0)
(0.000969129 -1.97825e-07 0)
(0.000969026 4.74077e-07 0)
(0.000968932 1.12622e-06 0)
(0.000968846 1.7583e-06 0)
(0.000968768 2.37061e-06 0)
(0.000968698 2.96314e-06 0)
(0.000968637 3.53607e-06 0)
(0.000968584 4.08996e-06 0)
(0.000968538 4.62496e-06 0)
(0.0009685 5.14089e-06 0)
(0.000995681 -9.73721e-07 0)
(0.000995665 -3.34225e-06 0)
(0.000995651 -5.34784e-06 0)
(0.000995661 -7.45801e-06 0)
(0.000995673 -9.45667e-06 0)
(0.000995618 -1.14778e-05 0)
(0.000995585 -1.3375e-05 0)
(0.000995556 -1.52254e-05 0)
(0.000995469 -1.70563e-05 0)
(0.000995395 -1.8825e-05 0)
(0.000995303 -2.05621e-05 0)
(0.000995183 -2.22253e-05 0)
(0.000994986 -2.3804e-05 0)
(0.000994772 -2.53212e-05 0)
(0.00099459 -2.6823e-05 0)
(0.00099434 -2.82422e-05 0)
(0.000994052 -2.95532e-05 0)
(0.000993727 -3.08288e-05 0)
(0.000993333 -3.19972e-05 0)
(0.00099293 -3.30794e-05 0)
(0.000992509 -3.40907e-05 0)
(0.00099205 -3.50314e-05 0)
(0.000991511 -3.58668e-05 0)
(0.000990986 -3.65766e-05 0)
(0.000990418 -3.7213e-05 0)
(0.00098981 -3.77613e-05 0)
(0.000989154 -3.81966e-05 0)
(0.00098848 -3.85464e-05 0)
(0.000987796 -3.87984e-05 0)
(0.000987105 -3.89756e-05 0)
(0.000986387 -3.90409e-05 0)
(0.000985653 -3.89982e-05 0)
(0.000984927 -3.88832e-05 0)
(0.000984179 -3.86666e-05 0)
(0.0009834 -3.83921e-05 0)
(0.000982623 -3.80264e-05 0)
(0.000981873 -3.75847e-05 0)
(0.000981116 -3.70716e-05 0)
(0.000980365 -3.64863e-05 0)
(0.000979622 -3.58361e-05 0)
(0.000978904 -3.51285e-05 0)
(0.000978176 -3.43669e-05 0)
(0.00097747 -3.3551e-05 0)
(0.000976785 -3.26964e-05 0)
(0.000976123 -3.18014e-05 0)
(0.000975474 -3.0873e-05 0)
(0.000974844 -2.99118e-05 0)
(0.000974233 -2.8923e-05 0)
(0.00097364 -2.79092e-05 0)
(0.00097307 -2.6877e-05 0)
(0.000972522 -2.58293e-05 0)
(0.000971996 -2.47702e-05 0)
(0.000971492 -2.3704e-05 0)
(0.000971008 -2.2633e-05 0)
(0.000970544 -2.15607e-05 0)
(0.000970102 -2.04896e-05 0)
(0.000969679 -1.94226e-05 0)
(0.000969276 -1.83624e-05 0)
(0.000968891 -1.73107e-05 0)
(0.000968526 -1.62699e-05 0)
(0.00096818 -1.52416e-05 0)
(0.000967855 -1.42276e-05 0)
(0.000967549 -1.32292e-05 0)
(0.000967265 -1.22477e-05 0)
(0.000967002 -1.12841e-05 0)
(0.000966758 -1.03391e-05 0)
(0.000966526 -9.41302e-06 0)
(0.000966303 -8.50669e-06 0)
(0.000966086 -7.62086e-06 0)
(0.000965871 -6.75661e-06 0)
(0.000965661 -5.91449e-06 0)
(0.000965459 -5.09467e-06 0)
(0.000965268 -4.29803e-06 0)
(0.000965087 -3.52368e-06 0)
(0.000964922 -2.77153e-06 0)
(0.00096477 -2.04215e-06 0)
(0.000964633 -1.33485e-06 0)
(0.000964512 -6.49295e-07 0)
(0.000964403 1.4619e-08 0)
(0.000964308 6.57271e-07 0)
(0.000964224 1.27892e-06 0)
(0.000964153 1.88012e-06 0)
(0.000964091 2.46099e-06 0)
(0.000964038 3.02148e-06 0)
(0.000997186 -1.04238e-06 0)
(0.00099717 -3.55965e-06 0)
(0.000997177 -5.73208e-06 0)
(0.000997168 -8.05007e-06 0)
(0.0009972 -1.01757e-05 0)
(0.000997158 -1.23148e-05 0)
(0.000997098 -1.43981e-05 0)
(0.000997071 -1.64201e-05 0)
(0.000997016 -1.84048e-05 0)
(0.000996935 -2.03361e-05 0)
(0.000996826 -2.22308e-05 0)
(0.000996671 -2.40179e-05 0)
(0.000996469 -2.57545e-05 0)
(0.000996279 -2.74896e-05 0)
(0.000996061 -2.91336e-05 0)
(0.000995757 -3.06879e-05 0)
(0.000995445 -3.21693e-05 0)
(0.000995085 -3.35722e-05 0)
(0.000994638 -3.49025e-05 0)
(0.000994183 -3.61683e-05 0)
(0.000993709 -3.73332e-05 0)
(0.000993147 -3.84009e-05 0)
(0.000992527 -3.93704e-05 0)
(0.000991899 -4.02317e-05 0)
(0.000991256 -4.09908e-05 0)
(0.000990536 -4.16511e-05 0)
(0.000989783 -4.22177e-05 0)
(0.000988996 -4.26957e-05 0)
(0.000988202 -4.3062e-05 0)
(0.000987372 -4.33338e-05 0)
(0.000986489 -4.34832e-05 0)
(0.000985624 -4.35409e-05 0)
(0.00098474 -4.34999e-05 0)
(0.000983845 -4.33422e-05 0)
(0.000982939 -4.31065e-05 0)
(0.000982005 -4.27867e-05 0)
(0.000981095 -4.23879e-05 0)
(0.000980164 -4.19006e-05 0)
(0.000979261 -4.13366e-05 0)
(0.00097836 -4.0706e-05 0)
(0.000977476 -4.00007e-05 0)
(0.000976595 -3.92327e-05 0)
(0.000975739 -3.84112e-05 0)
(0.000974903 -3.7535e-05 0)
(0.000974086 -3.66093e-05 0)
(0.000973285 -3.5641e-05 0)
(0.000972509 -3.46365e-05 0)
(0.000971755 -3.35987e-05 0)
(0.00097103 -3.2532e-05 0)
(0.000970331 -3.14428e-05 0)
(0.000969657 -3.03346e-05 0)
(0.00096901 -2.92123e-05 0)
(0.000968391 -2.80789e-05 0)
(0.000967797 -2.69388e-05 0)
(0.000967227 -2.57953e-05 0)
(0.000966683 -2.46516e-05 0)
(0.000966165 -2.35109e-05 0)
(0.000965671 -2.23755e-05 0)
(0.000965201 -2.1248e-05 0)
(0.000964753 -2.01304e-05 0)
(0.000964325 -1.90247e-05 0)
(0.000963916 -1.79326e-05 0)
(0.000963522 -1.68556e-05 0)
(0.000963143 -1.57954e-05 0)
(0.000962777 -1.47531e-05 0)
(0.000962426 -1.37305e-05 0)
(0.000962093 -1.27287e-05 0)
(0.000961783 -1.17486e-05 0)
(0.000961499 -1.07909e-05 0)
(0.000961241 -9.85578e-06 0)
(0.000961008 -8.94337e-06 0)
(0.000960797 -8.05373e-06 0)
(0.000960605 -7.18702e-06 0)
(0.000960428 -6.34338e-06 0)
(0.000960266 -5.52287e-06 0)
(0.000960117 -4.72792e-06 0)
(0.00095998 -3.95458e-06 0)
(0.000959855 -3.20247e-06 0)
(0.00095974 -2.47563e-06 0)
(0.000959638 -1.77171e-06 0)
(0.000959547 -1.09071e-06 0)
(0.000959465 -4.32188e-07 0)
(0.000959395 2.04252e-07 0)
(0.000959333 8.1834e-07 0)
(0.000998735 -1.11344e-06 0)
(0.000998739 -3.79081e-06 0)
(0.000998766 -6.08949e-06 0)
(0.000998758 -8.55347e-06 0)
(0.000998772 -1.08199e-05 0)
(0.000998751 -1.3073e-05 0)
(0.000998722 -1.52937e-05 0)
(0.000998687 -1.74961e-05 0)
(0.000998615 -1.96196e-05 0)
(0.000998557 -2.16832e-05 0)
(0.000998432 -2.3698e-05 0)
(0.00099826 -2.56488e-05 0)
(0.000998091 -2.75585e-05 0)
(0.000997895 -2.94469e-05 0)
(0.000997613 -3.12253e-05 0)
(0.000997303 -3.29329e-05 0)
(0.000996937 -3.45993e-05 0)
(0.000996544 -3.61511e-05 0)
(0.000996082 -3.76277e-05 0)
(0.000995564 -3.90399e-05 0)
(0.000995018 -4.03501e-05 0)
(0.000994403 -4.15573e-05 0)
(0.000993691 -4.26864e-05 0)
(0.00099297 -4.37118e-05 0)
(0.00099222 -4.46066e-05 0)
(0.000991418 -4.5407e-05 0)
(0.000990564 -4.60997e-05 0)
(0.000989667 -4.66965e-05 0)
(0.000988732 -4.71939e-05 0)
(0.000987761 -4.75546e-05 0)
(0.000986756 -4.78272e-05 0)
(0.000985739 -4.79933e-05 0)
(0.000984694 -4.80385e-05 0)
(0.000983624 -4.79811e-05 0)
(0.000982566 -4.78116e-05 0)
(0.000981494 -4.75571e-05 0)
(0.000980411 -4.72051e-05 0)
(0.000979324 -4.67658e-05 0)
(0.000978246 -4.62466e-05 0)
(0.000977181 -4.56423e-05 0)
(0.000976112 -4.496e-05 0)
(0.000975076 -4.42073e-05 0)
(0.000974042 -4.339e-05 0)
(0.000973038 -4.25087e-05 0)
(0.000972056 -4.15705e-05 0)
(0.000971105 -4.05814e-05 0)
(0.000970174 -3.95473e-05 0)
(0.000969268 -3.84749e-05 0)
(0.000968391 -3.73696e-05 0)
(0.000967546 -3.62339e-05 0)
(0.000966736 -3.50733e-05 0)
(0.000965956 -3.38915e-05 0)
(0.000965205 -3.26939e-05 0)
(0.000964488 -3.14835e-05 0)
(0.000963801 -3.02662e-05 0)
(0.000963144 -2.90448e-05 0)
(0.00096252 -2.7823e-05 0)
(0.000961924 -2.6604e-05 0)
(0.000961357 -2.53906e-05 0)
(0.000960819 -2.41856e-05 0)
(0.000960309 -2.29919e-05 0)
(0.000959827 -2.18117e-05 0)
(0.000959376 -2.06469e-05 0)
(0.000958956 -1.94993e-05 0)
(0.000958566 -1.83704e-05 0)
(0.000958204 -1.72613e-05 0)
(0.000957864 -1.61729e-05 0)
(0.000957542 -1.51059e-05 0)
(0.000957231 -1.40614e-05 0)
(0.00095693 -1.30404e-05 0)
(0.000956639 -1.20438e-05 0)
(0.000956361 -1.10724e-05 0)
(0.000956097 -1.01267e-05 0)
(0.000955852 -9.20692e-06 0)
(0.000955626 -8.31308e-06 0)
(0.000955421 -7.44514e-06 0)
(0.000955236 -6.60282e-06 0)
(0.00095507 -5.78582e-06 0)
(0.000954921 -4.99407e-06 0)
(0.00095479 -4.22754e-06 0)
(0.000954673 -3.48512e-06 0)
(0.00095457 -2.76662e-06 0)
(0.00095448 -2.07222e-06 0)
(0.000954402 -1.40135e-06 0)
(0.00100028 -1.18417e-06 0)
(0.00100028 -4.02329e-06 0)
(0.00100032 -6.42317e-06 0)
(0.00100032 -8.9974e-06 0)
(0.00100033 -1.13918e-05 0)
(0.00100033 -1.37945e-05 0)
(0.00100032 -1.61545e-05 0)
(0.0010003 -1.84717e-05 0)
(0.00100023 -2.07265e-05 0)
(0.00100015 -2.29368e-05 0)
(0.00100005 -2.5059e-05 0)
(0.000999891 -2.71915e-05 0)
(0.000999726 -2.9275e-05 0)
(0.000999503 -3.1263e-05 0)
(0.000999216 -3.32032e-05 0)
(0.000998891 -3.50769e-05 0)
(0.000998519 -3.68773e-05 0)
(0.000998051 -3.86037e-05 0)