/*--------------------------------*- C++ -*----------------------------------*\
  =========                 |
  \\      /  F ield         | OpenFOAM: The Open Source CFD Toolbox
   \\    /   O peration     | Website:  https://openfoam.org
    \\  /    A nd           | Version:  10
     \\/     M anipulation  |
\*---------------------------------------------------------------------------*/
FoamFile
{
    format      ascii;
    class       volVectorField;
    location    "0";
    object      U_d6;
}
// * * * * * * * * * * * * * * * * * * * * * * * * * * * * * * * * * * * * * //

dimensions      [0 1 -1 0 0 0 0];

internalField   nonuniform List<vector> 
84253
(
(0.00102173 -2.74624e-08 0)
(0.00102172 -1.21417e-07 0)
(0.00102172 -2.16161e-07 0)
(0.00102173 -3.00443e-07 0)
(0.00102172 -3.85029e-07 0)
(0.00102172 -4.74624e-07 0)
(0.00102173 -5.63735e-07 0)
(0.00102173 -6.5823e-07 0)
(0.00102173 -7.56593e-07 0)
(0.00102172 -8.41947e-07 0)
(0.00102172 -9.404e-07 0)
(0.00102172 -1.04177e-06 0)
(0.00102173 -1.13801e-06 0)
(0.00102172 -1.24193e-06 0)
(0.00102172 -1.34706e-06 0)
(0.00102172 -1.45288e-06 0)
(0.00102173 -1.55261e-06 0)
(0.00102172 -1.66425e-06 0)
(0.00102172 -1.77642e-06 0)
(0.00102171 -1.88673e-06 0)
(0.00102172 -1.99948e-06 0)
(0.00102172 -2.10674e-06 0)
(0.00102171 -2.21412e-06 0)
(0.0010217 -2.31442e-06 0)
(0.00102172 -2.4183e-06 0)
(0.0010217 -2.5225e-06 0)
(0.0010217 -2.62102e-06 0)
(0.0010217 -2.71599e-06 0)
(0.0010217 -2.8091e-06 0)
(0.0010217 -2.9042e-06 0)
(0.0010217 -2.99454e-06 0)
(0.00102169 -3.07932e-06 0)
(0.0010217 -3.16e-06 0)
(0.00102169 -3.23532e-06 0)
(0.00102169 -3.30793e-06 0)
(0.00102169 -3.37706e-06 0)
(0.00102169 -3.4426e-06 0)
(0.00102169 -3.50394e-06 0)
(0.00102168 -3.56145e-06 0)
(0.00102168 -3.61579e-06 0)
(0.00102168 -3.66313e-06 0)
(0.00102168 -3.70835e-06 0)
(0.00102167 -3.74935e-06 0)
(0.00102167 -3.78556e-06 0)
(0.00102167 -3.81879e-06 0)
(0.00102166 -3.84862e-06 0)
(0.00102164 -3.87507e-06 0)
(0.00102164 -3.89842e-06 0)
(0.00102163 -3.91889e-06 0)
(0.00102162 -3.93632e-06 0)
(0.00102162 -3.95065e-06 0)
(0.00102161 -3.96194e-06 0)
(0.0010216 -3.97035e-06 0)
(0.00102159 -3.97546e-06 0)
(0.00102157 -3.97831e-06 0)
(0.00102155 -3.97683e-06 0)
(0.00102154 -3.97195e-06 0)
(0.00102152 -3.96492e-06 0)
(0.00102151 -3.95469e-06 0)
(0.00102148 -3.94107e-06 0)
(0.00102146 -3.92433e-06 0)
(0.00102144 -3.905e-06 0)
(0.0010214 -3.88263e-06 0)
(0.00102137 -3.85772e-06 0)
(0.00102134 -3.83038e-06 0)
(0.00102131 -3.80086e-06 0)
(0.00102126 -3.76981e-06 0)
(0.00102123 -3.73684e-06 0)
(0.00102119 -3.70256e-06 0)
(0.00102116 -3.6676e-06 0)
(0.00102113 -3.63198e-06 0)
(0.0010211 -3.59613e-06 0)
(0.00102107 -3.56071e-06 0)
(0.00102104 -3.52615e-06 0)
(0.00102102 -3.49282e-06 0)
(0.001021 -3.46127e-06 0)
(0.00102097 -3.4319e-06 0)
(0.00102096 -3.40513e-06 0)
(0.00102094 -3.38119e-06 0)
(0.00102092 -3.36029e-06 0)
(0.0010209 -3.34247e-06 0)
(0.00102088 -3.32771e-06 0)
(0.00102087 -3.31612e-06 0)
(0.00102086 -3.30725e-06 0)
(0.00101322 -7.95415e-08 0)
(0.00101321 -3.60317e-07 0)
(0.00101321 -6.35233e-07 0)
(0.0010132 -8.81748e-07 0)
(0.00101323 -1.14421e-06 0)
(0.00101324 -1.40884e-06 0)
(0.00101325 -1.66502e-06 0)
(0.00101328 -1.92297e-06 0)
(0.00101328 -2.18664e-06 0)
(0.0010133 -2.47835e-06 0)
(0.00101333 -2.76634e-06 0)
(0.00101334 -3.06367e-06 0)
(0.00101335 -3.36479e-06 0)
(0.00101339 -3.67034e-06 0)
(0.00101341 -3.98337e-06 0)
(0.00101342 -4.31068e-06 0)
(0.00101343 -4.6336e-06 0)
(0.00101348 -4.95083e-06 0)
(0.0010135 -5.27914e-06 0)
(0.00101353 -5.61751e-06 0)
(0.00101354 -5.96046e-06 0)
(0.00101355 -6.28574e-06 0)
(0.00101358 -6.6239e-06 0)
(0.00101359 -6.96402e-06 0)
(0.00101361 -7.28682e-06 0)
(0.00101364 -7.60739e-06 0)
(0.00101365 -7.92834e-06 0)
(0.00101367 -8.24283e-06 0)
(0.00101369 -8.5498e-06 0)
(0.00101371 -8.83797e-06 0)
(0.00101373 -9.11938e-06 0)
(0.00101375 -9.40167e-06 0)
(0.00101375 -9.66401e-06 0)
(0.00101378 -9.923e-06 0)
(0.0010138 -1.0173e-05 0)
(0.00101381 -1.04093e-05 0)
(0.00101383 -1.06326e-05 0)
(0.00101385 -1.08437e-05 0)
(0.00101387 -1.10456e-05 0)
(0.00101388 -1.12347e-05 0)
(0.0010139 -1.14167e-05 0)
(0.00101393 -1.15847e-05 0)
(0.00101395 -1.17428e-05 0)
(0.00101397 -1.18908e-05 0)
(0.001014 -1.20272e-05 0)
(0.00101403 -1.21534e-05 0)
(0.00101406 -1.22698e-05 0)
(0.0010141 -1.23766e-05 0)
(0.00101414 -1.2474e-05 0)
(0.00101417 -1.25629e-05 0)
(0.00101421 -1.26426e-05 0)
(0.00101425 -1.27143e-05 0)
(0.0010143 -1.27799e-05 0)
(0.00101435 -1.28387e-05 0)
(0.00101439 -1.28897e-05 0)
(0.00101444 -1.29353e-05 0)
(0.0010145 -1.29753e-05 0)
(0.00101455 -1.30089e-05 0)
(0.00101461 -1.30367e-05 0)
(0.00101466 -1.30597e-05 0)
(0.00101472 -1.30772e-05 0)
(0.00101479 -1.3089e-05 0)
(0.00101486 -1.30962e-05 0)
(0.00101493 -1.30982e-05 0)
(0.001015 -1.3095e-05 0)
(0.00101507 -1.3086e-05 0)
(0.00101514 -1.30711e-05 0)
(0.00101521 -1.30507e-05 0)
(0.00101528 -1.30245e-05 0)
(0.00101534 -1.29923e-05 0)
(0.00101539 -1.29541e-05 0)
(0.00101544 -1.29097e-05 0)
(0.00101549 -1.28586e-05 0)
(0.00101553 -1.28006e-05 0)
(0.00101558 -1.27361e-05 0)
(0.00101562 -1.26644e-05 0)
(0.00101565 -1.25858e-05 0)
(0.00101569 -1.25004e-05 0)
(0.00101572 -1.24082e-05 0)
(0.00101576 -1.231e-05 0)
(0.00101578 -1.22064e-05 0)
(0.00101581 -1.2098e-05 0)
(0.00101583 -1.19847e-05 0)
(0.00101585 -1.18691e-05 0)
(0.00101265 -1.58388e-07 0)
(0.00101263 -6.04244e-07 0)
(0.00101264 -9.68451e-07 0)
(0.00101266 -1.37594e-06 0)
(0.00101268 -1.77377e-06 0)
(0.00101271 -2.1532e-06 0)
(0.00101273 -2.56662e-06 0)
(0.00101276 -2.98667e-06 0)
(0.00101282 -3.40838e-06 0)
(0.00101288 -3.87241e-06 0)
(0.00101291 -4.31279e-06 0)
(0.00101296 -4.75921e-06 0)
(0.00101302 -5.25441e-06 0)
(0.00101306 -5.7424e-06 0)
(0.00101312 -6.23945e-06 0)
(0.00101317 -6.74216e-06 0)
(0.00101322 -7.28545e-06 0)
(0.00101326 -7.81834e-06 0)
(0.00101333 -8.34756e-06 0)
(0.00101339 -8.88167e-06 0)
(0.00101343 -9.41036e-06 0)
(0.00101348 -9.96011e-06 0)
(0.00101354 -1.05003e-05 0)
(0.00101357 -1.10485e-05 0)
(0.0010136 -1.15895e-05 0)
(0.00101365 -1.2118e-05 0)
(0.0010137 -1.26374e-05 0)
(0.00101374 -1.31575e-05 0)
(0.00101375 -1.36634e-05 0)
(0.00101377 -1.41511e-05 0)
(0.00101381 -1.46236e-05 0)
(0.00101384 -1.50806e-05 0)
(0.00101386 -1.55332e-05 0)
(0.0010139 -1.59589e-05 0)
(0.00101392 -1.63626e-05 0)
(0.00101393 -1.67503e-05 0)
(0.00101395 -1.71216e-05 0)
(0.00101398 -1.74719e-05 0)
(0.001014 -1.78019e-05 0)
(0.00101402 -1.81131e-05 0)
(0.00101405 -1.84067e-05 0)
(0.00101407 -1.86793e-05 0)
(0.0010141 -1.89328e-05 0)
(0.00101413 -1.91685e-05 0)
(0.00101416 -1.93829e-05 0)
(0.00101419 -1.95796e-05 0)
(0.00101423 -1.97592e-05 0)
(0.00101426 -1.99221e-05 0)
(0.0010143 -2.0068e-05 0)
(0.00101435 -2.01988e-05 0)
(0.0010144 -2.03143e-05 0)
(0.00101446 -2.04158e-05 0)
(0.00101452 -2.05024e-05 0)
(0.00101458 -2.05741e-05 0)
(0.00101465 -2.06323e-05 0)
(0.00101472 -2.06781e-05 0)
(0.00101479 -2.0711e-05 0)
(0.00101487 -2.07316e-05 0)
(0.00101495 -2.07408e-05 0)
(0.00101504 -2.07392e-05 0)
(0.00101512 -2.07274e-05 0)
(0.0010152 -2.07051e-05 0)
(0.00101529 -2.06733e-05 0)
(0.00101537 -2.06324e-05 0)
(0.00101545 -2.05828e-05 0)
(0.00101553 -2.05252e-05 0)
(0.00101562 -2.04601e-05 0)
(0.0010157 -2.03884e-05 0)
(0.00101579 -2.03103e-05 0)
(0.00101588 -2.02261e-05 0)
(0.00101598 -2.0137e-05 0)
(0.00101607 -2.0044e-05 0)
(0.00101616 -1.99479e-05 0)
(0.00101625 -1.98499e-05 0)
(0.00101634 -1.97512e-05 0)
(0.00101642 -1.9653e-05 0)
(0.0010165 -1.95567e-05 0)
(0.00101657 -1.9463e-05 0)
(0.00101663 -1.9373e-05 0)
(0.00101669 -1.92875e-05 0)
(0.00101674 -1.9207e-05 0)
(0.00101679 -1.91319e-05 0)
(0.00101683 -1.90632e-05 0)
(0.00101686 -1.89986e-05 0)
(0.00101499 -2.22297e-07 0)
(0.00101498 -8.04637e-07 0)
(0.00101501 -1.25967e-06 0)
(0.00101503 -1.76988e-06 0)
(0.00101506 -2.28466e-06 0)
(0.00101511 -2.80195e-06 0)
(0.00101518 -3.33625e-06 0)
(0.00101523 -3.8938e-06 0)
(0.00101532 -4.47224e-06 0)
(0.00101538 -5.03641e-06 0)
(0.00101542 -5.63719e-06 0)
(0.00101553 -6.25567e-06 0)
(0.00101562 -6.89033e-06 0)
(0.00101568 -7.54726e-06 0)
(0.00101577 -8.21412e-06 0)
(0.00101587 -8.89936e-06 0)
(0.00101597 -9.59851e-06 0)
(0.00101603 -1.03289e-05 0)
(0.00101611 -1.10722e-05 0)
(0.00101617 -1.17982e-05 0)
(0.00101626 -1.25256e-05 0)
(0.00101633 -1.32777e-05 0)
(0.0010164 -1.40189e-05 0)
(0.00101647 -1.47449e-05 0)
(0.00101652 -1.54898e-05 0)
(0.00101656 -1.62279e-05 0)
(0.00101661 -1.695e-05 0)
(0.00101666 -1.76521e-05 0)
(0.00101668 -1.83371e-05 0)
(0.0010167 -1.90282e-05 0)
(0.00101671 -1.96955e-05 0)
(0.00101675 -2.03295e-05 0)
(0.00101675 -2.09512e-05 0)
(0.00101673 -2.15489e-05 0)
(0.00101673 -2.21228e-05 0)
(0.00101673 -2.26686e-05 0)
(0.00101671 -2.31876e-05 0)
(0.00101669 -2.3679e-05 0)
(0.00101668 -2.41415e-05 0)
(0.00101665 -2.45795e-05 0)
(0.00101662 -2.49804e-05 0)
(0.00101659 -2.53588e-05 0)
(0.00101657 -2.57125e-05 0)
(0.00101653 -2.60374e-05 0)
(0.00101649 -2.63384e-05 0)
(0.00101646 -2.66146e-05 0)
(0.00101644 -2.68674e-05 0)
(0.00101641 -2.70952e-05 0)
(0.00101639 -2.73001e-05 0)
(0.00101636 -2.74831e-05 0)
(0.00101634 -2.7645e-05 0)
(0.00101632 -2.77846e-05 0)
(0.00101628 -2.79028e-05 0)
(0.00101626 -2.80023e-05 0)
(0.00101624 -2.80845e-05 0)
(0.00101622 -2.81502e-05 0)
(0.0010162 -2.81998e-05 0)
(0.00101618 -2.8235e-05 0)
(0.00101617 -2.82562e-05 0)
(0.00101616 -2.82643e-05 0)
(0.00101615 -2.82604e-05 0)
(0.00101614 -2.82452e-05 0)
(0.00101613 -2.82193e-05 0)
(0.00101613 -2.81834e-05 0)
(0.00101613 -2.81388e-05 0)
(0.00101612 -2.80864e-05 0)
(0.00101612 -2.8027e-05 0)
(0.00101611 -2.79616e-05 0)
(0.00101609 -2.78909e-05 0)
(0.00101606 -2.78159e-05 0)
(0.00101603 -2.77375e-05 0)
(0.00101599 -2.76562e-05 0)
(0.00101595 -2.75728e-05 0)
(0.00101591 -2.74872e-05 0)
(0.00101587 -2.73997e-05 0)
(0.00101582 -2.73102e-05 0)
(0.00101578 -2.72186e-05 0)
(0.00101574 -2.7125e-05 0)
(0.0010157 -2.70294e-05 0)
(0.00101567 -2.69316e-05 0)
(0.00101563 -2.68319e-05 0)
(0.0010156 -2.67303e-05 0)
(0.00101557 -2.66268e-05 0)
(0.00101554 -2.65222e-05 0)
(0.00101471 -2.59138e-07 0)
(0.00101469 -9.57666e-07 0)
(0.00101472 -1.53464e-06 0)
(0.00101479 -2.16268e-06 0)
(0.00101484 -2.79413e-06 0)
(0.0010149 -3.4549e-06 0)
(0.001015 -4.11237e-06 0)
(0.0010151 -4.76785e-06 0)
(0.00101519 -5.4708e-06 0)
(0.0010153 -6.15109e-06 0)
(0.00101543 -6.91712e-06 0)
(0.00101555 -7.71883e-06 0)
(0.00101568 -8.48811e-06 0)
(0.0010158 -9.31064e-06 0)
(0.00101593 -1.01638e-05 0)
(0.00101608 -1.10293e-05 0)
(0.00101621 -1.19095e-05 0)
(0.00101636 -1.28084e-05 0)
(0.00101646 -1.37166e-05 0)
(0.00101657 -1.46496e-05 0)
(0.00101669 -1.56058e-05 0)
(0.00101682 -1.65585e-05 0)
(0.0010169 -1.75101e-05 0)
(0.00101699 -1.84563e-05 0)
(0.0010171 -1.94009e-05 0)
(0.00101717 -2.03463e-05 0)
(0.00101721 -2.12788e-05 0)
(0.00101726 -2.21941e-05 0)
(0.00101731 -2.30901e-05 0)
(0.00101736 -2.39623e-05 0)
(0.00101736 -2.48232e-05 0)
(0.00101736 -2.5655e-05 0)
(0.00101738 -2.64494e-05 0)
(0.00101738 -2.72344e-05 0)
(0.00101734 -2.79888e-05 0)
(0.0010173 -2.87002e-05 0)
(0.00101725 -2.93752e-05 0)
(0.0010172 -3.00252e-05 0)
(0.00101715 -3.06393e-05 0)
(0.00101708 -3.12126e-05 0)
(0.001017 -3.17549e-05 0)
(0.00101695 -3.22608e-05 0)
(0.00101687 -3.2729e-05 0)
(0.00101679 -3.31647e-05 0)
(0.00101672 -3.35724e-05 0)
(0.00101664 -3.39462e-05 0)
(0.00101655 -3.42863e-05 0)
(0.00101646 -3.4593e-05 0)
(0.00101638 -3.48679e-05 0)
(0.0010163 -3.51128e-05 0)
(0.00101621 -3.533e-05 0)
(0.00101612 -3.552e-05 0)
(0.00101604 -3.56851e-05 0)
(0.00101596 -3.58276e-05 0)
(0.00101589 -3.59468e-05 0)
(0.00101581 -3.60442e-05 0)
(0.00101574 -3.61216e-05 0)
(0.00101567 -3.61807e-05 0)
(0.00101559 -3.62222e-05 0)
(0.00101552 -3.62465e-05 0)
(0.00101545 -3.62556e-05 0)
(0.00101537 -3.62513e-05 0)
(0.00101529 -3.62335e-05 0)
(0.00101521 -3.62039e-05 0)
(0.00101513 -3.61643e-05 0)
(0.00101505 -3.61159e-05 0)
(0.00101497 -3.60591e-05 0)
(0.00101489 -3.59945e-05 0)
(0.00101483 -3.59226e-05 0)
(0.00101477 -3.58437e-05 0)
(0.00101472 -3.57581e-05 0)
(0.00101467 -3.56662e-05 0)
(0.00101463 -3.55685e-05 0)
(0.0010146 -3.54656e-05 0)
(0.00101456 -3.53585e-05 0)
(0.00101453 -3.52479e-05 0)
(0.00101449 -3.51345e-05 0)
(0.00101446 -3.50189e-05 0)
(0.00101442 -3.4902e-05 0)
(0.00101439 -3.47842e-05 0)
(0.00101436 -3.46664e-05 0)
(0.00101433 -3.4549e-05 0)
(0.00101429 -3.44326e-05 0)
(0.00101426 -3.43171e-05 0)
(0.00101511 -3.05423e-07 0)
(0.00101512 -1.12428e-06 0)
(0.00101517 -1.85905e-06 0)
(0.00101524 -2.62027e-06 0)
(0.00101533 -3.34854e-06 0)
(0.00101544 -4.12152e-06 0)
(0.00101554 -4.9217e-06 0)
(0.00101568 -5.7272e-06 0)
(0.00101582 -6.56342e-06 0)
(0.00101598 -7.43793e-06 0)
(0.00101619 -8.33157e-06 0)
(0.00101634 -9.25814e-06 0)
(0.00101651 -1.02139e-05 0)
(0.00101673 -1.1219e-05 0)
(0.00101691 -1.22577e-05 0)
(0.00101709 -1.33123e-05 0)
(0.00101731 -1.43869e-05 0)
(0.00101746 -1.54732e-05 0)
(0.00101765 -1.6583e-05 0)
(0.00101784 -1.77302e-05 0)
(0.00101803 -1.88997e-05 0)
(0.00101817 -2.00644e-05 0)
(0.00101831 -2.12463e-05 0)
(0.00101845 -2.24352e-05 0)
(0.00101858 -2.35997e-05 0)
(0.00101869 -2.4756e-05 0)
(0.00101877 -2.59103e-05 0)
(0.00101885 -2.70638e-05 0)
(0.00101889 -2.82026e-05 0)
(0.00101894 -2.93163e-05 0)
(0.00101897 -3.03925e-05 0)
(0.00101897 -3.14441e-05 0)
(0.00101898 -3.24644e-05 0)
(0.00101896 -3.3433e-05 0)
(0.00101891 -3.43662e-05 0)
(0.00101883 -3.52751e-05 0)
(0.00101878 -3.61437e-05 0)
(0.00101871 -3.69713e-05 0)
(0.0010186 -3.77606e-05 0)
(0.00101849 -3.84996e-05 0)
(0.00101838 -3.92047e-05 0)
(0.00101825 -3.98646e-05 0)
(0.00101812 -4.04737e-05 0)
(0.00101799 -4.10399e-05 0)
(0.00101786 -4.15605e-05 0)
(0.00101771 -4.20394e-05 0)
(0.00101756 -4.24772e-05 0)
(0.0010174 -4.28762e-05 0)
(0.00101725 -4.32358e-05 0)
(0.00101709 -4.35577e-05 0)
(0.00101694 -4.38438e-05 0)
(0.00101679 -4.40958e-05 0)
(0.00101664 -4.43151e-05 0)
(0.00101649 -4.45035e-05 0)
(0.00101634 -4.46622e-05 0)
(0.00101619 -4.47928e-05 0)
(0.00101605 -4.48968e-05 0)
(0.00101591 -4.4975e-05 0)
(0.00101577 -4.5031e-05 0)
(0.00101564 -4.50661e-05 0)
(0.00101551 -4.50811e-05 0)
(0.00101539 -4.50782e-05 0)
(0.00101528 -4.50587e-05 0)
(0.00101517 -4.50232e-05 0)
(0.00101508 -4.49725e-05 0)
(0.00101499 -4.49074e-05 0)
(0.0010149 -4.48298e-05 0)
(0.0010148 -4.4741e-05 0)
(0.0010147 -4.46426e-05 0)
(0.0010146 -4.45362e-05 0)
(0.00101449 -4.44234e-05 0)
(0.00101438 -4.43052e-05 0)
(0.00101427 -4.41827e-05 0)
(0.00101415 -4.40566e-05 0)
(0.00101405 -4.39275e-05 0)
(0.00101394 -4.37963e-05 0)
(0.00101384 -4.36632e-05 0)
(0.00101375 -4.35287e-05 0)
(0.00101365 -4.33934e-05 0)
(0.00101357 -4.32576e-05 0)
(0.00101348 -4.31219e-05 0)
(0.0010134 -4.29867e-05 0)
(0.00101333 -4.28522e-05 0)
(0.00101325 -4.27185e-05 0)
(0.00101592 -3.74984e-07 0)
(0.00101596 -1.33005e-06 0)
(0.00101603 -2.17004e-06 0)
(0.00101609 -3.06905e-06 0)
(0.00101621 -3.92495e-06 0)
(0.00101637 -4.79694e-06 0)
(0.00101652 -5.73005e-06 0)
(0.0010167 -6.69528e-06 0)
(0.0010169 -7.67886e-06 0)
(0.00101711 -8.7439e-06 0)
(0.00101734 -9.76757e-06 0)
(0.00101758 -1.08335e-05 0)
(0.00101783 -1.19783e-05 0)
(0.00101811 -1.3155e-05 0)
(0.00101836 -1.43614e-05 0)
(0.00101861 -1.56089e-05 0)
(0.00101885 -1.68723e-05 0)
(0.00101912 -1.81696e-05 0)
(0.00101937 -1.95211e-05 0)
(0.00101963 -2.089e-05 0)
(0.00101986 -2.22635e-05 0)
(0.00102008 -2.36376e-05 0)
(0.0010203 -2.50497e-05 0)
(0.00102047 -2.64715e-05 0)
(0.00102063 -2.78858e-05 0)
(0.00102078 -2.92908e-05 0)
(0.00102092 -3.06835e-05 0)
(0.00102104 -3.20669e-05 0)
(0.00102112 -3.34446e-05 0)
(0.00102117 -3.48032e-05 0)
(0.00102118 -3.61137e-05 0)
(0.00102119 -3.74008e-05 0)
(0.00102116 -3.86501e-05 0)
(0.0010211 -3.98414e-05 0)
(0.00102106 -4.10012e-05 0)
(0.00102099 -4.21304e-05 0)
(0.00102088 -4.32134e-05 0)
(0.00102076 -4.42342e-05 0)
(0.00102062 -4.52065e-05 0)
(0.00102046 -4.61325e-05 0)
(0.0010203 -4.70023e-05 0)
(0.0010201 -4.78219e-05 0)
(0.00101989 -4.85896e-05 0)
(0.00101968 -4.93047e-05 0)
(0.00101946 -4.99621e-05 0)
(0.00101923 -5.05678e-05 0)
(0.001019 -5.11233e-05 0)
(0.00101876 -5.16304e-05 0)
(0.00101852 -5.20912e-05 0)
(0.00101828 -5.25067e-05 0)
(0.00101803 -5.28771e-05 0)
(0.00101778 -5.32049e-05 0)
(0.00101753 -5.34921e-05 0)
(0.00101729 -5.37397e-05 0)
(0.00101704 -5.39499e-05 0)
(0.0010168 -5.41247e-05 0)
(0.00101656 -5.42664e-05 0)
(0.00101632 -5.43766e-05 0)
(0.00101609 -5.44569e-05 0)
(0.00101586 -5.45097e-05 0)
(0.00101563 -5.45374e-05 0)
(0.00101541 -5.45415e-05 0)
(0.00101517 -5.45244e-05 0)
(0.00101494 -5.44881e-05 0)
(0.00101471 -5.44347e-05 0)
(0.00101448 -5.43663e-05 0)
(0.00101425 -5.42842e-05 0)
(0.00101404 -5.41895e-05 0)
(0.00101384 -5.40834e-05 0)
(0.00101365 -5.39665e-05 0)
(0.00101348 -5.38396e-05 0)
(0.00101332 -5.37035e-05 0)
(0.00101316 -5.35595e-05 0)
(0.00101301 -5.34087e-05 0)
(0.00101287 -5.32521e-05 0)
(0.00101273 -5.30909e-05 0)
(0.00101259 -5.29259e-05 0)
(0.00101245 -5.27584e-05 0)
(0.00101232 -5.25888e-05 0)
(0.00101219 -5.2418e-05 0)
(0.00101207 -5.22467e-05 0)
(0.00101195 -5.20754e-05 0)
(0.00101183 -5.19047e-05 0)
(0.00101172 -5.17349e-05 0)
(0.00101657 -4.30996e-07 0)
(0.00101662 -1.52671e-06 0)
(0.00101673 -2.42319e-06 0)
(0.00101682 -3.43002e-06 0)
(0.00101694 -4.42447e-06 0)
(0.00101714 -5.42914e-06 0)
(0.00101736 -6.46069e-06 0)
(0.00101758 -7.54712e-06 0)
(0.00101787 -8.64932e-06 0)
(0.00101812 -9.80391e-06 0)
(0.00101839 -1.099e-05 0)
(0.00101872 -1.22353e-05 0)
(0.00101906 -1.35414e-05 0)
(0.0010194 -1.48562e-05 0)
(0.00101972 -1.62117e-05 0)
(0.00102006 -1.76197e-05 0)
(0.00102039 -1.90917e-05 0)
(0.00102073 -2.05894e-05 0)
(0.00102109 -2.21305e-05 0)
(0.00102141 -2.36954e-05 0)
(0.00102169 -2.52772e-05 0)
(0.00102199 -2.68783e-05 0)
(0.0010223 -2.84814e-05 0)
(0.00102254 -3.01241e-05 0)
(0.00102275 -3.17737e-05 0)
(0.00102295 -3.34169e-05 0)
(0.00102312 -3.50656e-05 0)
(0.00102328 -3.66717e-05 0)
(0.00102341 -3.82609e-05 0)
(0.00102346 -3.98134e-05 0)
(0.00102351 -4.13587e-05 0)
(0.00102353 -4.28864e-05 0)
(0.00102349 -4.43533e-05 0)
(0.00102343 -4.58011e-05 0)
(0.00102338 -4.71907e-05 0)
(0.00102328 -4.85197e-05 0)
(0.00102313 -4.98036e-05 0)
(0.00102296 -5.10287e-05 0)
(0.00102278 -5.219e-05 0)
(0.00102256 -5.32999e-05 0)
(0.00102233 -5.43443e-05 0)
(0.00102207 -5.53267e-05 0)
(0.00102179 -5.6253e-05 0)
(0.0010215 -5.7118e-05 0)
(0.00102118 -5.79221e-05 0)
(0.00102087 -5.86592e-05 0)
(0.00102054 -5.93366e-05 0)
(0.0010202 -5.99577e-05 0)
(0.00101986 -6.05245e-05 0)
(0.00101952 -6.10345e-05 0)
(0.00101916 -6.14911e-05 0)
(0.0010188 -6.18979e-05 0)
(0.00101845 -6.22555e-05 0)
(0.00101809 -6.25655e-05 0)
(0.00101773 -6.28305e-05 0)
(0.00101738 -6.30537e-05 0)
(0.00101703 -6.32378e-05 0)
(0.00101669 -6.33855e-05 0)
(0.00101634 -6.3498e-05 0)
(0.00101601 -6.35779e-05 0)
(0.00101569 -6.36282e-05 0)
(0.00101537 -6.3651e-05 0)
(0.00101507 -6.36476e-05 0)
(0.00101478 -6.36198e-05 0)
(0.0010145 -6.35689e-05 0)
(0.00101423 -6.34968e-05 0)
(0.00101397 -6.34051e-05 0)
(0.00101371 -6.32959e-05 0)
(0.00101345 -6.31714e-05 0)
(0.00101318 -6.3034e-05 0)
(0.0010129 -6.28853e-05 0)
(0.00101263 -6.2727e-05 0)
(0.00101237 -6.25608e-05 0)
(0.00101211 -6.23882e-05 0)
(0.00101186 -6.22097e-05 0)
(0.00101163 -6.20265e-05 0)
(0.0010114 -6.18394e-05 0)
(0.00101119 -6.16495e-05 0)
(0.00101098 -6.14575e-05 0)
(0.00101079 -6.12638e-05 0)
(0.0010106 -6.10693e-05 0)
(0.00101043 -6.08749e-05 0)
(0.00101026 -6.0681e-05 0)
(0.0010101 -6.04882e-05 0)
(0.0010173 -4.67926e-07 0)
(0.00101733 -1.67692e-06 0)
(0.00101744 -2.64228e-06 0)
(0.00101758 -3.69361e-06 0)
(0.00101776 -4.79371e-06 0)
(0.00101798 -5.92755e-06 0)
(0.00101825 -7.02634e-06 0)
(0.00101854 -8.20013e-06 0)
(0.00101885 -9.40255e-06 0)
(0.00101919 -1.06266e-05 0)
(0.00101955 -1.19489e-05 0)
(0.00101997 -1.33303e-05 0)
(0.00102038 -1.47456e-05 0)
(0.00102076 -1.61723e-05 0)
(0.0010212 -1.76689e-05 0)
(0.00102164 -1.924e-05 0)
(0.00102207 -2.08611e-05 0)
(0.0010225 -2.25346e-05 0)
(0.00102294 -2.4228e-05 0)
(0.00102333 -2.59424e-05 0)
(0.00102372 -2.77076e-05 0)
(0.00102408 -2.95233e-05 0)
(0.00102446 -3.13325e-05 0)
(0.00102481 -3.31565e-05 0)
(0.00102509 -3.50019e-05 0)
(0.00102538 -3.68526e-05 0)
(0.00102559 -3.87055e-05 0)
(0.00102576 -4.05327e-05 0)
(0.00102591 -4.23277e-05 0)
(0.00102603 -4.40989e-05 0)
(0.00102613 -4.58691e-05 0)
(0.00102615 -4.75888e-05 0)
(0.00102613 -4.92777e-05 0)
(0.00102609 -5.09435e-05 0)
(0.00102597 -5.2543e-05 0)
(0.00102586 -5.40737e-05 0)
(0.00102568 -5.55413e-05 0)
(0.00102547 -5.69607e-05 0)
(0.00102522 -5.83116e-05 0)
(0.00102496 -5.95931e-05 0)
(0.00102465 -6.08113e-05 0)
(0.00102433 -6.19575e-05 0)
(0.00102398 -6.30341e-05 0)
(0.00102359 -6.40392e-05 0)
(0.00102318 -6.49807e-05 0)
(0.00102276 -6.58553e-05 0)
(0.00102233 -6.66628e-05 0)
(0.0010219 -6.74042e-05 0)
(0.00102144 -6.80804e-05 0)
(0.00102099 -6.8692e-05 0)
(0.00102052 -6.92428e-05 0)
(0.00102005 -6.97347e-05 0)
(0.00101957 -7.01711e-05 0)
(0.00101909 -7.05546e-05 0)
(0.00101862 -7.08881e-05 0)
(0.00101815 -7.11743e-05 0)
(0.00101768 -7.14157e-05 0)
(0.00101722 -7.16132e-05 0)
(0.00101676 -7.17699e-05 0)
(0.00101631 -7.18884e-05 0)
(0.00101586 -7.19708e-05 0)
(0.00101542 -7.20201e-05 0)
(0.00101497 -7.20397e-05 0)
(0.00101453 -7.20319e-05 0)
(0.00101408 -7.19988e-05 0)
(0.00101365 -7.19428e-05 0)
(0.00101322 -7.18661e-05 0)
(0.00101281 -7.17708e-05 0)
(0.00101243 -7.1658e-05 0)
(0.00101206 -7.15293e-05 0)
(0.00101172 -7.13862e-05 0)
(0.0010114 -7.12299e-05 0)
(0.00101109 -7.10622e-05 0)
(0.0010108 -7.08843e-05 0)
(0.00101051 -7.06977e-05 0)
(0.00101023 -7.05039e-05 0)
(0.00100996 -7.03042e-05 0)
(0.00100969 -7.01e-05 0)
(0.00100944 -6.98924e-05 0)
(0.00100919 -6.96825e-05 0)
(0.00100895 -6.94712e-05 0)
(0.00100872 -6.92596e-05 0)
(0.0010085 -6.90481e-05 0)
(0.00100829 -6.88374e-05 0)
(0.00101808 -4.91481e-07 0)
(0.00101812 -1.74502e-06 0)
(0.00101822 -2.79061e-06 0)
(0.00101841 -3.92052e-06 0)
(0.00101866 -5.06292e-06 0)
(0.00101889 -6.26882e-06 0)
(0.00101919 -7.45805e-06 0)
(0.00101956 -8.67067e-06 0)
(0.00101993 -9.95951e-06 0)
(0.00102035 -1.12921e-05 0)
(0.00102082 -1.27053e-05 0)
(0.0010213 -1.41626e-05 0)
(0.00102175 -1.56469e-05 0)
(0.00102225 -1.71803e-05 0)
(0.00102281 -1.88258e-05 0)
(0.00102335 -2.05253e-05 0)
(0.00102387 -2.22392e-05 0)
(0.0010244 -2.40565e-05 0)
(0.0010249 -2.58837e-05 0)
(0.00102542 -2.77593e-05 0)
(0.00102593 -2.96935e-05 0)
(0.0010264 -3.16737e-05 0)
(0.00102682 -3.36724e-05 0)
(0.00102726 -3.56627e-05 0)
(0.00102764 -3.76936e-05 0)
(0.00102798 -3.97331e-05 0)
(0.00102826 -4.17553e-05 0)
(0.00102849 -4.37868e-05 0)
(0.0010287 -4.58005e-05 0)
(0.00102887 -4.78143e-05 0)
(0.00102898 -4.9784e-05 0)
(0.00102902 -5.1699e-05 0)
(0.00102904 -5.35945e-05 0)
(0.001029 -5.54279e-05 0)
(0.00102888 -5.72364e-05 0)
(0.00102871 -5.89744e-05 0)
(0.00102852 -6.06482e-05 0)
(0.00102827 -6.22539e-05 0)
(0.00102797 -6.37893e-05 0)
(0.00102764 -6.52552e-05 0)
(0.00102728 -6.66448e-05 0)
(0.00102686 -6.79594e-05 0)
(0.00102642 -6.91945e-05 0)
(0.00102595 -7.03569e-05 0)
(0.00102547 -7.14412e-05 0)
(0.00102494 -7.24559e-05 0)
(0.0010244 -7.33924e-05 0)
(0.00102385 -7.42535e-05 0)
(0.00102327 -7.50394e-05 0)
(0.00102268 -7.57549e-05 0)
(0.00102209 -7.64013e-05 0)
(0.00102149 -7.69809e-05 0)
(0.0010209 -7.74997e-05 0)
(0.00102029 -7.79584e-05 0)
(0.00101969 -7.8359e-05 0)
(0.0010191 -7.87053e-05 0)
(0.0010185 -7.90015e-05 0)
(0.00101791 -7.92494e-05 0)
(0.00101732 -7.94515e-05 0)
(0.00101675 -7.96116e-05 0)
(0.00101618 -7.97323e-05 0)
(0.00101564 -7.98161e-05 0)
(0.00101511 -7.98659e-05 0)
(0.00101459 -7.98846e-05 0)
(0.0010141 -7.98748e-05 0)
(0.00101362 -7.9838e-05 0)
(0.00101315 -7.97756e-05 0)
(0.00101268 -7.96906e-05 0)
(0.00101222 -7.95853e-05 0)
(0.00101175 -7.94627e-05 0)
(0.00101128 -7.9325e-05 0)
(0.00101082 -7.91743e-05 0)
(0.00101037 -7.90121e-05 0)
(0.00100994 -7.88396e-05 0)
(0.00100952 -7.86581e-05 0)
(0.00100912 -7.84693e-05 0)
(0.00100873 -7.82739e-05 0)
(0.00100837 -7.8073e-05 0)
(0.00100802 -7.78677e-05 0)
(0.00100769 -7.76586e-05 0)
(0.00100737 -7.7447e-05 0)
(0.00100707 -7.72335e-05 0)
(0.00100678 -7.70192e-05 0)
(0.00100651 -7.68043e-05 0)
(0.00101884 -5.08936e-07 0)
(0.00101889 -1.79211e-06 0)
(0.00101902 -2.90367e-06 0)
(0.00101924 -4.13265e-06 0)
(0.00101953 -5.29333e-06 0)
(0.00101983 -6.51868e-06 0)
(0.00102015 -7.79671e-06 0)
(0.00102057 -9.09121e-06 0)
(0.00102104 -1.04508e-05 0)
(0.00102154 -1.1858e-05 0)
(0.00102208 -1.33454e-05 0)
(0.00102262 -1.48401e-05 0)
(0.00102316 -1.6408e-05 0)
(0.00102379 -1.81021e-05 0)
(0.00102446 -1.98378e-05 0)
(0.00102506 -2.1619e-05 0)
(0.00102571 -2.34661e-05 0)
(0.00102635 -2.53773e-05 0)
(0.00102696 -2.73457e-05 0)
(0.00102759 -2.93933e-05 0)
(0.00102821 -3.14729e-05 0)
(0.00102878 -3.35983e-05 0)
(0.0010293 -3.57588e-05 0)
(0.00102982 -3.79286e-05 0)
(0.00103031 -4.01253e-05 0)
(0.00103072 -4.23415e-05 0)
(0.00103108 -4.45677e-05 0)
(0.0010314 -4.68109e-05 0)
(0.00103168 -4.90379e-05 0)
(0.00103189 -5.12565e-05 0)
(0.00103201 -5.34253e-05 0)
(0.0010321 -5.55767e-05 0)
(0.00103214 -5.76892e-05 0)
(0.00103211 -5.97262e-05 0)
(0.00103201 -6.17308e-05 0)
(0.00103183 -6.36766e-05 0)
(0.00103159 -6.55684e-05 0)
(0.0010313 -6.73839e-05 0)
(0.00103097 -6.91226e-05 0)
(0.00103058 -7.07913e-05 0)
(0.00103014 -7.23742e-05 0)
(0.00102965 -7.38765e-05 0)
(0.00102914 -7.52978e-05 0)
(0.00102857 -7.66319e-05 0)
(0.00102798 -7.7881e-05 0)
(0.00102735 -7.90457e-05 0)
(0.00102669 -8.01284e-05 0)
(0.00102602 -8.11284e-05 0)
(0.00102531 -8.20474e-05 0)
(0.0010246 -8.28883e-05 0)
(0.00102388 -8.36551e-05 0)
(0.00102316 -8.43494e-05 0)
(0.00102242 -8.49718e-05 0)
(0.00102168 -8.55274e-05 0)
(0.00102094 -8.60194e-05 0)
(0.00102022 -8.64505e-05 0)
(0.00101949 -8.68227e-05 0)
(0.00101876 -8.71399e-05 0)
(0.00101804 -8.74063e-05 0)
(0.00101733 -8.7624e-05 0)
(0.00101662 -8.7796e-05 0)
(0.00101593 -8.79257e-05 0)
(0.00101523 -8.8015e-05 0)
(0.00101455 -8.80678e-05 0)
(0.00101386 -8.80873e-05 0)
(0.00101318 -8.8077e-05 0)
(0.00101253 -8.80396e-05 0)
(0.00101189 -8.79779e-05 0)
(0.00101129 -8.78937e-05 0)
(0.00101072 -8.77888e-05 0)
(0.00101018 -8.76643e-05 0)
(0.00100967 -8.75218e-05 0)
(0.00100917 -8.73632e-05 0)
(0.00100869 -8.71906e-05 0)
(0.00100823 -8.70059e-05 0)
(0.00100778 -8.68107e-05 0)
(0.00100735 -8.66067e-05 0)
(0.00100693 -8.63955e-05 0)
(0.00100652 -8.61785e-05 0)
(0.00100612 -8.5957e-05 0)
(0.00100574 -8.5732e-05 0)
(0.00100538 -8.55047e-05 0)
(0.00100503 -8.5276e-05 0)
(0.00100469 -8.50464e-05 0)
(0.0010196 -5.40797e-07 0)
(0.00101968 -1.88361e-06 0)
(0.00101985 -3.02948e-06 0)
(0.00102007 -4.32048e-06 0)
(0.0010204 -5.52965e-06 0)
(0.00102074 -6.78757e-06 0)
(0.00102115 -8.11615e-06 0)
(0.00102163 -9.50619e-06 0)
(0.00102214 -1.09312e-05 0)
(0.00102274 -1.23943e-05 0)
(0.00102333 -1.39309e-05 0)
(0.00102395 -1.55152e-05 0)
(0.00102465 -1.7191e-05 0)
(0.00102538 -1.89861e-05 0)
(0.0010261 -2.07977e-05 0)
(0.00102683 -2.26816e-05 0)
(0.00102759 -2.46781e-05 0)
(0.00102834 -2.6699e-05 0)
(0.00102908 -2.87977e-05 0)
(0.00102984 -3.09758e-05 0)
(0.00103056 -3.31955e-05 0)
(0.00103125 -3.54672e-05 0)
(0.00103187 -3.78058e-05 0)
(0.00103248 -4.01744e-05 0)
(0.00103307 -4.2545e-05 0)
(0.0010336 -4.49542e-05 0)
(0.00103408 -4.73783e-05 0)
(0.00103448 -4.9826e-05 0)
(0.00103481 -5.22806e-05 0)
(0.00103508 -5.46946e-05 0)
(0.00103527 -5.71069e-05 0)
(0.00103541 -5.94952e-05 0)
(0.00103544 -6.18338e-05 0)
(0.00103542 -6.41249e-05 0)
(0.00103534 -6.63542e-05 0)
(0.00103517 -6.85354e-05 0)
(0.00103494 -7.06488e-05 0)
(0.00103461 -7.26973e-05 0)
(0.00103423 -7.46754e-05 0)
(0.00103379 -7.65629e-05 0)
(0.00103328 -7.83669e-05 0)
(0.00103273 -8.00883e-05 0)
(0.00103211 -8.17194e-05 0)
(0.00103146 -8.32543e-05 0)
(0.00103076 -8.46964e-05 0)
(0.00103002 -8.60438e-05 0)
(0.00102926 -8.72997e-05 0)
(0.00102845 -8.84652e-05 0)
(0.00102763 -8.9544e-05 0)
(0.00102678 -9.05362e-05 0)
(0.00102593 -9.1441e-05 0)
(0.00102505 -9.22609e-05 0)
(0.00102417 -9.29983e-05 0)
(0.00102329 -9.36574e-05 0)
(0.00102241 -9.42443e-05 0)
(0.00102154 -9.47592e-05 0)
(0.00102065 -9.52054e-05 0)
(0.00101978 -9.55889e-05 0)
(0.00101892 -9.59135e-05 0)
(0.00101806 -9.61825e-05 0)
(0.00101723 -9.63995e-05 0)
(0.00101641 -9.65687e-05 0)
(0.00101562 -9.66942e-05 0)
(0.00101484 -9.67778e-05 0)
(0.0010141 -9.68223e-05 0)
(0.00101338 -9.68315e-05 0)
(0.00101267 -9.68077e-05 0)
(0.00101198 -9.67536e-05 0)
(0.00101129 -9.66719e-05 0)
(0.00101059 -9.6566e-05 0)
(0.00100991 -9.64386e-05 0)
(0.00100923 -9.62924e-05 0)
(0.00100857 -9.61298e-05 0)
(0.00100793 -9.59529e-05 0)
(0.00100732 -9.57633e-05 0)
(0.00100673 -9.5562e-05 0)
(0.00100616 -9.53507e-05 0)
(0.00100562 -9.51307e-05 0)
(0.00100511 -9.49035e-05 0)
(0.00100461 -9.46705e-05 0)
(0.00100414 -9.44328e-05 0)
(0.00100369 -9.41915e-05 0)
(0.00100326 -9.39478e-05 0)
(0.00100285 -9.37023e-05 0)
(0.00102037 -5.72734e-07 0)
(0.00102045 -1.99202e-06 0)
(0.00102065 -3.16755e-06 0)
(0.00102091 -4.49445e-06 0)
(0.00102125 -5.75871e-06 0)
(0.00102167 -7.0876e-06 0)
(0.00102213 -8.48117e-06 0)
(0.00102268 -9.90911e-06 0)
(0.00102325 -1.13881e-05 0)
(0.00102391 -1.29381e-05 0)
(0.00102462 -1.45129e-05 0)
(0.00102533 -1.62178e-05 0)
(0.00102613 -1.80083e-05 0)
(0.00102695 -1.98393e-05 0)
(0.00102779 -2.17669e-05 0)
(0.00102866 -2.3767e-05 0)
(0.00102953 -2.58529e-05 0)
(0.00103038 -2.80131e-05 0)
(0.00103125 -3.02446e-05 0)
(0.00103213 -3.25458e-05 0)
(0.00103297 -3.49268e-05 0)
(0.0010338 -3.73407e-05 0)
(0.00103457 -3.98454e-05 0)
(0.00103528 -4.24047e-05 0)
(0.00103598 -4.49892e-05 0)
(0.00103661 -4.76049e-05 0)
(0.00103719 -5.02333e-05 0)
(0.00103772 -5.28933e-05 0)
(0.00103813 -5.55633e-05 0)
(0.00103847 -5.82112e-05 0)
(0.00103876 -6.08691e-05 0)
(0.00103891 -6.35e-05 0)
(0.001039 -6.60887e-05 0)
(0.00103902 -6.86442e-05 0)
(0.00103894 -7.11399e-05 0)
(0.00103878 -7.35838e-05 0)
(0.00103853 -7.59488e-05 0)
(0.00103821 -7.82416e-05 0)
(0.0010378 -8.04741e-05 0)
(0.00103731 -8.26169e-05 0)
(0.00103675 -8.4679e-05 0)
(0.00103612 -8.66432e-05 0)
(0.00103543 -8.85045e-05 0)
(0.00103466 -9.02731e-05 0)
(0.00103387 -9.19349e-05 0)
(0.00103301 -9.34948e-05 0)
(0.00103212 -9.49558e-05 0)
(0.0010312 -9.63142e-05 0)